LAMMPS data file via vdw_self_gen.py, on 2021-08-05 13:22:06.196671

7000 atoms
4 atom types
6500 bonds
3 bond types
12000 angles
4 angle types
13500 dihedrals
2 dihedral types

-42.4415226238988623  42.4415226238988694 xlo xhi
-42.4415226238988623  42.4415226238988694 ylo yhi
-42.4415226238988623  42.4415226238988694 zlo zhi

Masses

1  1.007940
2  1.007940
3  12.011000
4  12.011000

Atoms

1         0    4   -0.1529710000000000   3.7917173457064486  -13.3874084958324993 -32.1810639777339560 0 0 0
2         0    3    0.2345410000000000   5.0162457441064729  -13.8674126737873387 -32.9679552218444556 0 0 0
3         0    1    0.0285690000000000   3.4498678290024616  -12.4033337244292312 -32.5670311337418923 0 0 0
4         0    1    0.0285690000000000   4.0494242465917418  -13.2671487173120433 -31.1071126492714853 0 0 0
5         0    1    0.0285690000000000   2.9567832960714617  -14.1157342254301525 -32.2691172506212638 0 0 0
6         0    4   -0.1529710000000000   5.5172727899481746  -15.2058923468223597 -32.4142973457086612 0 0 0
7         0    1    0.0285690000000000   5.7883133138273077  -15.0996824335277982 -31.3421588561779103 0 0 0
8         0    1    0.0285690000000000   6.4218476365313393  -15.5353676922568464 -32.9687507556358383 0 0 0
9         0    1    0.0285690000000000   4.7344527349065553  -15.9891402660470039 -32.5094018138208583 0 0 0
10        0    4   -0.1529710000000000   4.6782754455196018  -13.9970889130277509 -34.4572726746561671 0 0 0
11        0    2   -0.0327490000000000   5.8261577823027606  -13.1134474187060501 -32.8544495192787096 0 0 0
12        0    1    0.0285690000000000   4.3432837533670989  -13.0177322119220733 -34.8608286525430131 0 0 0
13        0    1    0.0285690000000000   3.8701279568508369  -14.7438312137715215 -34.6140803471032399 0 0 0
14        0    1    0.0285690000000000   5.5763764291104483  -14.3172185786553552 -35.0275039287612984 0 0 0
15        1    4   -0.1529710000000000   13.6892564561301775  15.5274109713136887 -32.9505112918512282 0 0 0
16        1    3    0.2345410000000000   14.0949336649197630  14.1255951222225704 -33.4189234681507301 0 0 0
17        1    1    0.0285690000000000   12.6265716281861007  15.7246599087329155 -33.2074718071924977 0 0 0
18        1    1    0.0285690000000000   14.3149946744635859  16.2954300906389484 -33.4533482748464905 0 0 0
19        1    1    0.0285690000000000   13.8157172758367111  15.6270591478351193 -31.8507819994819172 0 0 0
20        1    4   -0.1529710000000000   15.5714009717674813  13.8621576895405951 -33.1031102472878729 0 0 0
21        1    1    0.0285690000000000   16.2116755113742563  14.6173013145607165 -33.6071251989736268 0 0 0
22        1    1    0.0285690000000000   15.8682422089110489  12.8565288966797731 -33.4702944667205244 0 0 0
23        1    1    0.0285690000000000   15.7547020640534363  13.9115067422841836 -32.0079870661068284 0 0 0
24        1    4   -0.1529710000000000   13.2086640927538834  13.0634319869583848 -32.7590431422289257 0 0 0
25        1    2   -0.0327490000000000   13.9541418135671478  14.0674365292198313 -34.5207854797713551 0 0 0
26        1    1    0.0285690000000000   12.1422735233820642  13.2416352227527536 -33.0145253713707305 0 0 0
27        1    1    0.0285690000000000   13.3206119406885257  13.0886500383698348 -31.6535356558111260 0 0 0
28        1    1    0.0285690000000000   13.4872530854939452  12.0516352504188156 -33.1235806571049096 0 0 0
29        2    4   -0.1529710000000000  -5.9552235074852806   14.4558864807091538  13.4495859815505217 0 0 0
30        2    3    0.2345410000000000  -4.6199084255078136   14.5455890016864640  14.1965523321807385 0 0 0
31        2    1    0.0285690000000000  -5.8739684551015712   14.9515083859191655  12.4586311708562523 0 0 0
32        2    1    0.0285690000000000  -6.7531427398572914   14.9684232871828229  14.0282721120397778 0 0 0
33        2    1    0.0285690000000000  -6.2499787337016990   13.3953054519205192  13.2959179871868614 0 0 0
34        2    4   -0.1529710000000000  -4.7366156139850455   13.8986491398934024  15.5810887986491782 0 0 0
35        2    1    0.0285690000000000  -5.5251095312159730   14.4068788257406908  16.1762395198227154 0 0 0
36        2    1    0.0285690000000000  -3.7751084998790594   13.9917564291172560  16.1297811918140255 0 0 0
37        2    1    0.0285690000000000  -4.9945609793138770   12.8212356667574525  15.4917926743743326 0 0 0
38        2    4   -0.1529710000000000  -3.5063161215839185   13.8749840162222107  13.3845748330393146 0 0 0
39        2    2   -0.0327490000000000  -4.3616782181267588   15.6193269791404283  14.3296259049478909 0 0 0
40        2    1    0.0285690000000000  -3.4061335760379716   14.3661155859701353  12.3931265752543336 0 0 0
41        2    1    0.0285690000000000  -3.7270965945415959   12.7968599439382267  13.2289485472699351 0 0 0
42        2    1    0.0285690000000000  -2.5353053075048106   13.9679197173302025  13.9163012825422499 0 0 0
43        3    4   -0.1529710000000000   13.1809603313242309  32.5983820155163073 -32.0024864517772798 0 0 0
44        3    3    0.2345410000000000   14.2137063811132531  33.3741981475630780 -32.8274813398227465 0 0 0
45        3    1    0.0285690000000000   12.2307850823455642  33.1708467101762778 -31.9417734968484481 0 0 0
46        3    1    0.0285690000000000   13.5564551243954785  32.4407624560444248 -30.9688489660753241 0 0 0
47        3    1    0.0285690000000000   12.9731104318545043  31.6081165499174226 -32.4623770272761192 0 0 0
48        3    4   -0.1529710000000000   15.5401342213149043  32.6082072997262031 -32.8817048159943113 0 0 0
49        3    1    0.0285690000000000   15.9338550757828141  32.4506688652890034 -31.8548698816294333 0 0 0
50        3    1    0.0285690000000000   16.2940633511802595  33.1877741140619662 -33.4560926770787646 0 0 0
51        3    1    0.0285690000000000   15.4035336938387832  31.6182402196815744 -33.3681561267348172 0 0 0
52        3    4   -0.1529710000000000   13.6850280675215217  33.6298757021344983 -34.2431912514311136 0 0 0
53        3    2   -0.0327490000000000   14.3930112444267344  34.3555261854825105 -32.3353942459203054 0 0 0
54        3    1    0.0285690000000000   12.7387575198271463  34.2103110982810250 -34.1997952773503613 0 0 0
55        3    1    0.0285690000000000   13.4924099971236782  32.6707715487290073 -34.7707635926095833 0 0 0
56        3    1    0.0285690000000000   14.4246283894792509  34.2173432142954539 -34.8280889763501378 0 0 0
57        4    4   -0.1529710000000000  -22.6269500454924426 -3.8766522318044778  -32.2969361161916098 0 0 0
58        4    3    0.2345410000000000  -23.8248334426473818 -4.3966921566728949  -33.0992487003901843 0 0 0
59        4    1    0.0285690000000000  -22.9747530748257134 -3.3929809485414468  -31.3592101243190982 0 0 0
60        4    1    0.0285690000000000  -22.0680970488466350 -3.1209310720892853  -32.8892329791739471 0 0 0
61        4    1    0.0285690000000000  -21.9370217416036795 -4.7080361160134796  -32.0359257963367625 0 0 0
62        4    4   -0.1529710000000000  -23.3545771909523303 -5.0297945091130796  -34.4134531931067613 0 0 0
63        4    1    0.0285690000000000  -22.8013547299661070 -4.2829882983923779  -35.0220991035418194 0 0 0
64        4    1    0.0285690000000000  -24.2279787059733778 -5.3790834788528183  -35.0045498427987525 0 0 0
65        4    1    0.0285690000000000  -22.6866288019067284 -5.8960101053591254  -34.2163621182416264 0 0 0
66        4    4   -0.1529710000000000  -24.6233354374669879 -5.4104918233946142  -32.2723804369866230 0 0 0
67        4    2   -0.0327490000000000  -24.4883776906064909 -3.5368923080227113  -33.3395774570164320 0 0 0
68        4    1    0.0285690000000000  -24.9865675549430222 -4.9386766409683212  -31.3344735804353292 0 0 0
69        4    1    0.0285690000000000  -23.9937138482014554 -6.2882051374758543  -32.0106342509298685 0 0 0
70        4    1    0.0285690000000000  -25.5065422057810274 -5.7627114771421644  -32.8469404274299492 0 0 0
71        5    4   -0.1529710000000000   5.1945617395117516   31.9106552823036189  22.7538295980423335 0 0 0
72        5    3    0.2345410000000000   4.3237192348723079   32.8826337378632445  23.5575477410758367 0 0 0
73        5    1    0.0285690000000000   4.8614049706583522   31.8840702526751514  21.6943322186841741 0 0 0
74        5    1    0.0285690000000000   5.1071159081484199   30.8842066655852605  23.1697661085990951 0 0 0
75        5    1    0.0285690000000000   6.2617242163025599   32.2196646828675384  22.7855163932863718 0 0 0
76        5    4   -0.1529710000000000   4.7525257141856887   32.8940974092511453  25.0289710544487036 0 0 0
77        5    1    0.0285690000000000   4.6616613272469341   31.8752571465793366  25.4624830316131998 0 0 0
78        5    1    0.0285690000000000   4.1000698674445371   33.5778977863103520  25.6128774274974802 0 0 0
79        5    1    0.0285690000000000   5.8063377639658142   33.2328153528125085  25.1293688624316047 0 0 0
80        5    4   -0.1529710000000000   4.4086767147627803   34.2932827723380598  22.9642873824254998 0 0 0
81        5    2   -0.0327490000000000   3.2672532066020352   32.5391839467559052  23.5007460500871588 0 0 0
82        5    1    0.0285690000000000   4.0694451999467773   34.2851118405147304  21.9064255652070159 0 0 0
83        5    1    0.0285690000000000   5.4520953389411773   34.6742617007515577  23.0023360896643752 0 0 0
84        5    1    0.0285690000000000   3.7535551012535739   34.9878855502903363  23.5322439961505943 0 0 0
85        6    4   -0.1529710000000000   4.1842021085335688   15.3012850988333220 -14.8569640033300931 0 0 0
86        6    3    0.2345410000000000   4.4837163692738349   14.2193376920530650 -13.8135308928842520 0 0 0
87        6    1    0.0285690000000000   4.4164352047289563   16.3062906082008432 -14.4443302571671985 0 0 0
88        6    1    0.0285690000000000   3.1080861621320159   15.2806375317981384 -15.1322726753253765 0 0 0
89        6    1    0.0285690000000000   4.7911769088513863   15.1423578720381400 -15.7743790363780274 0 0 0
90        6    4   -0.1529710000000000   4.1277799212157467   12.8332817733621418 -14.3623944595432764 0 0 0
91        6    1    0.0285690000000000   3.0512368073785598   12.7935649308272144 -14.6338754873680141 0 0 0
92        6    1    0.0285690000000000   4.3192700664473396   12.0555681416316087 -13.5925105258235916 0 0 0
93        6    1    0.0285690000000000   4.7330574456331904   12.5998161715666175 -15.2648701282531558 0 0 0
94        6    4   -0.1529710000000000   5.9586490633887532   14.2685532084019950 -13.3996979485922214 0 0 0
95        6    2   -0.0327490000000000   3.8584503910601411   14.4138205866682760 -12.9143515335845755 0 0 0
96        6    1    0.0285690000000000   6.2045925030485822   15.2655688391118431 -12.9758016573740189 0 0 0
97        6    1    0.0285690000000000   6.6192192985078577   14.0784269151734147 -14.2730902031936893 0 0 0
98        6    1    0.0285690000000000   6.1642740536427647   13.5019295418615037 -12.6223701027105406 0 0 0
99        7    4   -0.1529710000000000   31.7202402176385476  13.5360734544186627 -14.4320894167044571 0 0 0
100       7    3    0.2345410000000000   33.2160736628147149  13.8631746733280128 -14.3645710023242312 0 0 0
101       7    1    0.0285690000000000   31.5296445863698551  12.5255635057142118 -14.0116398451615591 0 0 0
102       7    1    0.0285690000000000   31.3739078249756034  13.5424578129794320 -15.4876744823235732 0 0 0
103       7    1    0.0285690000000000   31.1280776706307130  14.2802717873292782 -13.8569033826995831 0 0 0
104       7    4   -0.1529710000000000   33.4912134338381975  15.2397950929698744 -14.9796379143152993 0 0 0
105       7    1    0.0285690000000000   33.1585708999070832  15.2593412055998972 -16.0394451355121213 0 0 0
106       7    1    0.0285690000000000   34.5798562994664778  15.4599370022111309 -14.9546881445315485 0 0 0
107       7    1    0.0285690000000000   32.9525404565596247  16.0354487173850444 -14.4209822646483143 0 0 0
108       7    4   -0.1529710000000000   33.7091541971449686  13.8167757965781171 -12.9141141584640167 0 0 0
109       7    2   -0.0327490000000000   33.7712520793530899  13.0977874914875567 -14.9504584042064383 0 0 0
110       7    1    0.0285690000000000   33.5339341891878675  12.8084414753299267 -12.4819379738998091 0 0 0
111       7    1    0.0285690000000000   33.1770745667510667  14.5694533920970297 -12.2930805221577835 0 0 0
112       7    1    0.0285690000000000   34.7994840422609499  14.0259175040999544 -12.8732162645792982 0 0 0
113       8    4   -0.1529710000000000  -12.7894598589803561  14.6362268837328493 -4.5267034874460723  0 0 0
114       8    3    0.2345410000000000  -14.3087864335407282  14.4411128470847459 -4.4752359060230607  0 0 0
115       8    1    0.0285690000000000  -12.3595666173724528  14.5681104850157563 -3.5045553326536023  0 0 0
116       8    1    0.0285690000000000  -12.5456565434973744  15.6388962986936679 -4.9383595388550399  0 0 0
117       8    1    0.0285690000000000  -12.3144488471823905  13.8616598357537324 -5.1668105420514649  0 0 0
118       8    4   -0.1529710000000000  -14.9132372038453269  14.5736565521019870 -5.8774357534551225  0 0 0
119       8    1    0.0285690000000000  -14.6858483625474072  15.5758350482145289 -6.2995222715799972  0 0 0
120       8    1    0.0285690000000000  -16.0174227570313334  14.4603323705312210 -5.8309585105653756  0 0 0
121       8    1    0.0285690000000000  -14.5023703962401953  13.7971935581215490 -6.5583344880605683  0 0 0
122       8    4   -0.1529710000000000  -14.6528336938308659  13.0752285489518076 -3.8710025969439137  0 0 0
123       8    2   -0.0327490000000000  -14.7443367800623975  15.2332829622275572 -3.8271100970017766  0 0 0
124       8    1    0.0285690000000000  -14.2373474490517200  12.9950506785272495 -2.8437932226713079  0 0 0
125       8    1    0.0285690000000000  -14.2341138447259326  12.2535138917090638 -4.4913039618770947  0 0 0
126       8    1    0.0285690000000000  -15.7550101236195488  12.9503389508624167 -3.8090205946582678  0 0 0
127       9    4   -0.1529710000000000   32.5626340143400057  3.5099673959553925   22.8972740922625171 0 0 0
128       9    3    0.2345410000000000   33.4081452073744316  4.6118855484109762   23.5453164112065672 0 0 0
129       9    1    0.0285690000000000   32.7444813816199343  2.5387905401419024   23.4051933211223542 0 0 0
130       9    1    0.0285690000000000   32.8362313998967181  3.3968464751870227   21.8264824015490362 0 0 0
131       9    1    0.0285690000000000   31.4801303245385462  3.7523959333576227   22.9661274169406617 0 0 0
132       9    4   -0.1529710000000000   33.1920763391827052  5.9466025662903190   22.8235562668499838 0 0 0
133       9    1    0.0285690000000000   33.4705385056941864  5.8523096067724900   21.7522056652227249 0 0 0
134       9    1    0.0285690000000000   33.8285900621369819  6.7354881514802223   23.2782408323132017 0 0 0
135       9    1    0.0285690000000000   32.1285818914634973  6.2626229367880288   22.8901902409240172 0 0 0
136       9    4   -0.1529710000000000   33.0636908535400451  4.7458620763951425   25.0327665156046386 0 0 0
137       9    2   -0.0327490000000000   34.4809601846980414  4.3320361245684937   23.4555557048523973 0 0 0
138       9    1    0.0285690000000000   33.2494129269560972  3.7842447359278761   25.5571860147260139 0 0 0
139       9    1    0.0285690000000000   31.9963280909515042  5.0256258962001850   25.1661232232253553 0 0 0
140       9    1    0.0285690000000000   33.6992229445060687  5.5254683163670384   25.5045134124139636 0 0 0
141       10   4   -0.1529710000000000   14.5774559308732279 -6.0445857072257274   13.7381803650141698 0 0 0
142       10   3    0.2345410000000000   14.5050556907888826 -4.6353527593185389   14.3364214060407367 0 0 0
143       10   1    0.0285690000000000   14.7582975308012436 -6.7922813884982016   14.5397303492584182 0 0 0
144       10   1    0.0285690000000000   15.4138906141297394 -6.1091363123740114   13.0098556043334987 0 0 0
145       10   1    0.0285690000000000   13.6293988400848978 -6.3005595016751226   13.2176116532564052 0 0 0
146       10   4   -0.1529710000000000   14.2955239769320155 -3.5946900377560542   13.2308850925537556 0 0 0
147       10   1    0.0285690000000000   15.1297750813808047 -3.6403089067302208   12.4986498397015868 0 0 0
148       10   1    0.0285690000000000   14.2727084196648093 -2.5727439836509816   13.6660103078029582 0 0 0
149       10   1    0.0285690000000000   13.3389469918935006 -3.7766715289592661   12.6950002075699828 0 0 0
150       10   4   -0.1529710000000000   13.3781075058684316 -4.5506614991437706   15.3717578267052968 0 0 0
151       10   2   -0.0327490000000000   15.4695541774032943 -4.4187478448225104   14.8464504643645778 0 0 0
152       10   1    0.0285690000000000   13.5496812214505393 -5.2868036186793246   16.1859283549529493 0 0 0
153       10   1    0.0285690000000000   12.3938269452888825 -4.7615038308784099   14.9005335037826576 0 0 0
154       10   1    0.0285690000000000   13.3482159849678652 -3.5360993841305133   15.8234239361911282 0 0 0
155       11   4   -0.1529710000000000  -22.2966863254590315 -33.6719355997255008  4.9077261028604839  0 0 0
156       11   3    0.2345410000000000  -23.7889496170786394 -33.3231888237528153  4.8832803643098810  0 0 0
157       11   1    0.0285690000000000  -22.1114894748925508 -34.6037469064850782  4.3318227182244460  0 0 0
158       11   1    0.0285690000000000  -21.9592177567715581 -33.8385150444688065  5.9530073907141539  0 0 0
159       11   1    0.0285690000000000  -21.6931467736426207 -32.8510830742272546  4.4635777545843833  0 0 0
160       11   4   -0.1529710000000000  -24.0570897754558324 -32.0604096975722328  5.7094660054027822  0 0 0
161       11   1    0.0285690000000000  -23.7332293444079490 -32.2145382866402201  6.7609331952063334  0 0 0
162       11   1    0.0285690000000000  -25.1434964468029349 -31.8281630617372855  5.7126729815266915  0 0 0
163       11   1    0.0285690000000000  -23.5067205133466324 -31.1908852717987521  5.2895251170522180  0 0 0
164       11   4   -0.1529710000000000  -24.2701816869562705 -33.1312591114473918  3.4408223907606885  0 0 0
165       11   2   -0.0327490000000000  -24.3557851569648456 -34.1670443026718544  5.3348443812778523  0 0 0
166       11   1    0.0285690000000000  -24.1002412842718385 -34.0588864299478757  2.8535880026267315  0 0 0
167       11   1    0.0285690000000000  -23.7262593500229642 -32.2940751902337553  2.9523690698114282  0 0 0
168       11   1    0.0285690000000000  -25.3582380131397294 -32.9072933261899436  3.4265108294846449  0 0 0
169       12   4   -0.1529710000000000  -14.8786536906631159  22.4838981244889418  22.9582983377684720 0 0 0
170       12   3    0.2345410000000000  -13.7898859584785090  23.4654586298141972  23.4057303875137102 0 0 0
171       12   1    0.0285690000000000  -14.6161487715228819  21.4511659181157519  23.2726075018835488 0 0 0
172       12   1    0.0285690000000000  -14.9732120226807979  22.4950705624988849  21.8514195659623915 0 0 0
173       12   1    0.0285690000000000  -15.8602189111255409  22.7547255042049095  23.4038416722206044 0 0 0
174       12   4   -0.1529710000000000  -14.1263286826360517  24.8865028856473742  22.9403998642025684 0 0 0
175       12   1    0.0285690000000000  -14.2150693303823932  24.9162389604898031  21.8333924950805240 0 0 0
176       12   1    0.0285690000000000  -13.3203905709391801  25.5892500900929249  23.2417939033912084 0 0 0
177       12   1    0.0285690000000000  -15.0851709738149928  25.2298934694135255  23.3854097169333279 0 0 0
178       12   4   -0.1529710000000000  -13.6266558558774715  23.4256898799507134  24.9291740868800957 0 0 0
179       12   2   -0.0327490000000000  -12.8269833867909036  23.1604753449570566  22.9397813630537790 0 0 0
180       12   1    0.0285690000000000  -13.3544733702451293  22.4002445484655937  25.2587116048509337 0 0 0
181       12   1    0.0285690000000000  -14.5703976933472958  23.7249687822234350  25.4342469095141226 0 0 0
182       12   1    0.0285690000000000  -12.8168496930237499  24.1171488188503247  25.2459241099581462 0 0 0
183       13   4   -0.1529710000000000  -34.3814882729002349 -4.7223721904555207   23.0913186596362827 0 0 0
184       13   3    0.2345410000000000  -33.1265290797920358 -4.7805456616188486   23.9692508382731333 0 0 0
185       13   1    0.0285690000000000  -35.0477586869150670 -3.9001269820432438   23.4293000880484428 0 0 0
186       13   1    0.0285690000000000  -34.9452463781094096 -5.6768287250434089   23.1650495174464410 0 0 0
187       13   1    0.0285690000000000  -34.1101863732504640 -4.5485098175340948   22.0276017005590354 0 0 0
188       13   4   -0.1529710000000000  -32.2216539311229866 -5.9382903977238595   23.5334514911621646 0 0 0
189       13   1    0.0285690000000000  -32.7687183890968114 -6.9021331046554772   23.6106017803160313 0 0 0
190       13   1    0.0285690000000000  -31.3277982834179269 -5.9943305759389371   24.1908020974533464 0 0 0
191       13   1    0.0285690000000000  -31.8851171565340294 -5.8011449342128651   22.4830879719043786 0 0 0
192       13   4   -0.1529710000000000  -32.3651051514487378 -3.4520190055602606   23.9032443954964187 0 0 0
193       13   2   -0.0327490000000000  -33.4403795625200146 -4.9552369052048268   25.0220022352828053 0 0 0
194       13   1    0.0285690000000000  -33.0157864988531315 -2.6199630905226394   24.2475017810249263 0 0 0
195       13   1    0.0285690000000000  -32.0328935818107681 -3.2397883080137042   22.8640578495300240 0 0 0
196       13   1    0.0285690000000000  -31.4723627811271385 -3.4888566053149757   24.5634611130800238 0 0 0
197       14   4   -0.1529710000000000   14.9249896467490970 -22.3509918935053129  33.0888966613224511 0 0 0
198       14   3    0.2345410000000000   13.8122007003603446 -23.4015060237035861  33.1737050479879017 0 0 0
199       14   1    0.0285690000000000   15.1601276021099860 -21.9593024834462973  34.1015784678620406 0 0 0
200       14   1    0.0285690000000000   14.5995746176258070 -21.4984393271874907  32.4552517311876301 0 0 0
201       14   1    0.0285690000000000   15.8480265045305284 -22.7895367318728859  32.6518520429845367 0 0 0
202       14   4   -0.1529710000000000   13.4551789599919793 -23.9171043810458634  31.7752105752028555 0 0 0
203       14   1    0.0285690000000000   13.1184067997571336 -23.0766601673425775  31.1314229644620077 0 0 0
204       14   1    0.0285690000000000   12.6286260426063723 -24.6566796143448990  31.8389835252052826 0 0 0
205       14   1    0.0285690000000000   14.3338262203673548 -24.4029543324428957  31.2984944983160638 0 0 0
206       14   4   -0.1529710000000000   14.2395957444381658 -24.5620255087479791  34.0790416296689926 0 0 0
207       14   2   -0.0327490000000000   12.9094383648515780 -22.9241713384713961  33.6146998595912336 0 0 0
208       14   1    0.0285690000000000   14.4694312536367278 -24.1874266643764528  35.0993689073632495 0 0 0
209       14   1    0.0285690000000000   15.1419225049790587 -25.0673574949621809  33.6719039696317850 0 0 0
210       14   1    0.0285690000000000   13.4190939495239761 -25.3065755577635585  34.1606142461127291 0 0 0
211       15   4   -0.1529710000000000  -24.9947371907865374  23.6051643654162255 -32.6750986425318573 0 0 0
212       15   3    0.2345410000000000  -23.5149338833099222  23.9582334242593937 -32.8610987776632228 0 0 0
213       15   1    0.0285690000000000  -25.6338386162907739  24.3360757105706504 -33.2150549988635220 0 0 0
214       15   1    0.0285690000000000  -25.2643586451868032  23.6394598746548610 -31.5978916956673643 0 0 0
215       15   1    0.0285690000000000  -25.2085497290738942  22.5865551414522230 -33.0650294848956747 0 0 0
216       15   4   -0.1529710000000000  -22.6289916991306335  22.9769393119094438 -32.0856883760312925 0 0 0
217       15   1    0.0285690000000000  -22.8803296948325325  23.0063839226820583 -31.0039367045220686 0 0 0
218       15   1    0.0285690000000000  -21.5592332028236910  23.2540655683640658 -32.1999076286227464 0 0 0
219       15   1    0.0285690000000000  -22.7713520994497358  21.9393568263367555 -32.4578247803963720 0 0 0
220       15   4   -0.1529710000000000  -23.1460280074039986  23.9517718854630211 -34.3487052539325504 0 0 0
221       15   2   -0.0327490000000000  -23.3432872863891028  24.9812927444707782 -32.4596118748953444 0 0 0
222       15   1    0.0285690000000000  -23.7708348724988774  24.6853593027419294 -34.9015906775425364 0 0 0
223       15   1    0.0285690000000000  -23.3039929600084825  22.9436352794601000 -34.7891853677692211 0 0 0
224       15   1    0.0285690000000000  -22.0802636320284051  24.2364381614319520 -34.4803998635649691 0 0 0
225       16   4   -0.1529710000000000  -24.3214104997920657  34.2616829917319379 -23.5731141730336873 0 0 0
226       16   3    0.2345410000000000  -23.2374284138802238  33.1890717387066658 -23.7266054649879656 0 0 0
227       16   1    0.0285690000000000  -24.5365747422247367  34.7324066102297948 -24.5561495320450618 0 0 0
228       16   1    0.0285690000000000  -23.9781718844664908  35.0564022501626908 -22.8767986768477769 0 0 0
229       16   1    0.0285690000000000  -25.2600971265275511  33.8188108746506515 -23.1755486825797519 0 0 0
230       16   4   -0.1529710000000000  -22.9073025545317783  32.5633384849737624 -22.3669850062707845 0 0 0
231       16   1    0.0285690000000000  -22.5531373441835399  33.3449282517494296 -21.6613584107894788 0 0 0
232       16   1    0.0285690000000000  -22.1010120375404178  31.8072827158927609 -22.4788041296313779 0 0 0
233       16   1    0.0285690000000000  -23.8032820264500842  32.0691679718746769 -21.9329968828337840 0 0 0
234       16   4   -0.1529710000000000  -23.6887105061253109  32.1099463282309543 -24.7170291857683750 0 0 0
235       16   2   -0.0327490000000000  -22.3178983098997463  33.6714757748170399 -24.1254229593611420 0 0 0
236       16   1    0.0285690000000000  -23.8989796825250238  32.5640370146156073 -25.7088985980878242 0 0 0
237       16   1    0.0285690000000000  -24.6082787414103663  31.6020778898016133 -24.3540154350617897 0 0 0
238       16   1    0.0285690000000000  -22.8884476496560332  31.3503952294611850 -24.8470043819145943 0 0 0
239       17   4   -0.1529710000000000   23.3387383212575408  15.4919394740900849 -24.0809693768820416 0 0 0
240       17   3    0.2345410000000000   23.1780935621566506  14.0483869559135996 -23.5916626959141915 0 0 0
241       17   1    0.0285690000000000   22.7570108956471344  16.1827814569126431 -23.4340030328096098 0 0 0
242       17   1    0.0285690000000000   22.9583995097283022  15.5887740142194087 -25.1203019402526131 0 0 0
243       17   1    0.0285690000000000   24.4070800633833080  15.7978466958259229 -24.0611373769445187 0 0 0
244       17   4   -0.1529710000000000   23.9460423209615421  13.0854554931909224 -24.5038637053133392 0 0 0
245       17   1    0.0285690000000000   23.5703961109925579  13.1636932243967877 -25.5464533822005073 0 0 0
246       17   1    0.0285690000000000   23.8029925103445130  12.0380128516168803 -24.1623539625609247 0 0 0
247       17   1    0.0285690000000000   25.0327277369323831  13.3186812864555666 -24.4967970602572507 0 0 0
248       17   4   -0.1529710000000000   23.6642187014022340  13.9166896405065508 -22.1440976745393243 0 0 0
249       17   2   -0.0327490000000000   22.0986543074332751  13.7821522307135123 -23.6267999476551367 0 0 0
250       17   1    0.0285690000000000   23.0850082089365571  14.5953498270208719 -21.4821671904565576 0 0 0
251       17   1    0.0285690000000000   24.7423883836990193  14.1750087841045236 -22.0657623087914558 0 0 0
252       17   1    0.0285690000000000   23.5189808863383973  12.8756669765608471 -21.7843618646359296 0 0 0
253       18   4   -0.1529710000000000   4.0104664579489331  -23.2696050591270627 -15.3822483186018353 0 0 0
254       18   3    0.2345410000000000   4.3652620943318690  -23.6391250361602197 -13.9377253238464487 0 0 0
255       18   1    0.0285690000000000   3.3937521030408169  -22.3457286667405803 -15.4009755538801674 0 0 0
256       18   1    0.0285690000000000   3.4237304084720686  -24.0867487625041363 -15.8536968240353069 0 0 0
257       18   1    0.0285690000000000   4.9302967934964563  -23.0978060619584902 -15.9820181685262739 0 0 0
258       18   4   -0.1529710000000000   5.1825751204967840  -24.9352057314788524 -13.9021271766537620 0 0 0
259       18   1    0.0285690000000000   4.6048985225917258  -25.7652116642562206 -14.3621319068329178 0 0 0
260       18   1    0.0285690000000000   5.4125185405727017  -25.2144369765322942 -12.8517062251063887 0 0 0
261       18   1    0.0285690000000000   6.1378088145359593  -24.8137058595331901 -14.4571909318111764 0 0 0
262       18   4   -0.1529710000000000   5.1406208517108771  -22.4988671420370316 -13.2685937543883838 0 0 0
263       18   2   -0.0327490000000000   3.4207567751072645  -23.8021753213572040 -13.3732530336021558 0 0 0
264       18   1    0.0285690000000000   4.5326434227941501  -21.5690423478429238 -13.2709827143551866 0 0 0
265       18   1    0.0285690000000000   6.0945867089654389  -22.3037919926739896 -13.8045134336254396 0 0 0
266       18   1    0.0285690000000000   5.3702296897776378  -22.7592808970111946 -12.2132755462625759 0 0 0
267       19   4   -0.1529710000000000   4.0262484612627265   24.5339036100546508 -5.5703313865799737  0 0 0
268       19   3    0.2345410000000000   4.6860937851329423   23.2759625235496799 -4.9947794681144577  0 0 0
269       19   1    0.0285690000000000   2.9579154023362784   24.3347733758354572 -5.8010834576966435  0 0 0
270       19   1    0.0285690000000000   4.5330034599505007   24.8358042209896794 -6.5117675816680851  0 0 0
271       19   1    0.0285690000000000   4.0849973614442199   25.3755342949700520 -4.8467756033563996  0 0 0