
                                 *****************
                                 * O   R   C   A *
                                 *****************

           --- An Ab Initio, DFT and Semiempirical electronic structure package ---

                  #######################################################
                  #                        -***-                        #
                  #          Department of theory and spectroscopy      #
                  #               Directorship: Frank Neese             #
                  #        Max Planck Institute fuer Kohlenforschung    #
                  #                Kaiser Wilhelm Platz 1               #
                  #                 D-45470 Muelheim/Ruhr               #
                  #                      Germany                        #
                  #                                                     #
                  #                  All rights reserved                #
                  #                        -***-                        #
                  #######################################################


                         Program Version 4.1.2  - RELEASE  -


 With contributions from (in alphabetic order):
   Daniel Aravena         : Magnetic Properties
   Michael Atanasov       : Ab Initio Ligand Field Theory
   Alexander A. Auer      : GIAO ZORA
   Ute Becker             : Parallelization
   Giovanni Bistoni       : ED, Open-shell LED
   Martin Brehm           : Molecular dynamics
   Dmytro Bykov           : SCF Hessian
   Vijay G. Chilkuri      : MRCI spin determinant printing
   Dipayan Datta          : RHF DLPNO-CCSD density
   Achintya Kumar Dutta   : EOM-CC, STEOM-CC
   Dmitry Ganyushin       : Spin-Orbit,Spin-Spin,Magnetic field MRCI
   Miquel Garcia          : C-PCM Hessian
   Yang Guo               : DLPNO-NEVPT2, CIM, IAO-localization
   Andreas Hansen         : Spin unrestricted coupled pair/coupled cluster methods
   Benjamin Helmich-Paris : CASSCF linear response (MC-RPA)
   Lee Huntington         : MR-EOM, pCC
   Robert Izsak           : Overlap fitted RIJCOSX, COSX-SCS-MP3, EOM
   Christian Kollmar      : KDIIS, OOCD, Brueckner-CCSD(T), CCSD density
   Simone Kossmann        : Meta GGA functionals, TD-DFT gradient, OOMP2, MP2 Hessian
   Martin Krupicka        : AUTO-CI
   Lucas Lang             : DCDCAS
   Dagmar Lenk            : GEPOL surface, SMD
   Dimitrios Liakos       : Extrapolation schemes; parallel MDCI
   Dimitrios Manganas     : ROCIS; embedding schemes
   Dimitrios Pantazis     : SARC Basis sets
   Taras Petrenko         : DFT Hessian,TD-DFT gradient, ASA, ECA, R-Raman, ABS, FL, XAS/XES, NRVS
   Peter Pinski           : DLPNO-MP2, DLPNO-MP2 Gradient
   Christoph Reimann      : Effective Core Potentials
   Marius Retegan         : Local ZFS, SOC
   Christoph Riplinger    : Optimizer, TS searches, QM/MM, DLPNO-CCSD(T), (RO)-DLPNO pert. Triples
   Tobias Risthaus        : Range-separated hybrids, TD-DFT gradient, RPA, STAB
   Michael Roemelt        : Restricted open shell CIS
   Masaaki Saitow         : Open-shell DLPNO
   Barbara Sandhoefer     : DKH picture change effects
   Avijit Sen             : IP-ROCIS
   Kantharuban Sivalingam : CASSCF convergence, NEVPT2, FIC-MRCI
   Bernardo de Souza      : ESD, SOC TD-DFT
   Georgi Stoychev        : AutoAux, RI-MP2 NMR
   Willem Van den Heuvel  : Paramagnetic NMR
   Boris Wezisla          : Elementary symmetry handling
   Frank Wennmohs         : Technical directorship


 We gratefully acknowledge several colleagues who have allowed us to
 interface, adapt or use parts of their codes:
   Stefan Grimme, W. Hujo, H. Kruse,             : VdW corrections, initial TS optimization,
                  C. Bannwarth                     DFT functionals, gCP, sTDA/sTD-DF
   Ed Valeev                                     : LibInt (2-el integral package), F12 methods
   Garnet Chan, S. Sharma, J. Yang, R. Olivares  : DMRG
   Ulf Ekstrom                                   : XCFun DFT Library
   Mihaly Kallay                                 : mrcc  (arbitrary order and MRCC methods)
   Andreas Klamt, Michael Diedenhofen            : otool_cosmo (COSMO solvation model)
   Jiri Pittner, Ondrej Demel                    : Mk-CCSD
   Frank Weinhold                                : gennbo (NPA and NBO analysis)
   Christopher J. Cramer and Donald G. Truhlar   : smd solvation model
   Lars Goerigk                                  : TD-DFT with DH, B97 family of functionals
   V. Asgeirsson, H. Jonsson                     : NEB implementation
   FAccTs GmbH                                   : IRC, NEB, NEB-TS, Multilevel


 Your calculation uses the libint2 library for the computation of 2-el integrals
 For citations please refer to: http://libint.valeyev.net

 This ORCA versions uses:
   CBLAS   interface :  Fast vector & matrix operations
   LAPACKE interface :  Fast linear algebra routines
   SCALAPACK package :  Parallel linear algebra routines


Your calculation utilizes the atom-pairwise dispersion correction
with the zero-damping scheme (D30)
Cite in your paper:
S.Grimme, J.Antony, S.Ehrlich and H.Krieg, J.Chem.Phys., 132, (2010), 154104 
   

XCFun DFT library Copyright 2009-2010 Ulf Ekstrom and contributors.
See http://admol.org/xcfun for more information. This is free soft-
ware; see the source code for copying conditions. There is ABSOLUTELY
NO WARRANTY; not even for MERCHANTABILITY or FITNESS FOR A PARTICULAR
PURPOSE. For details see the documentation. Scientific users of this 
library should cite U. Ekstrom, L. Visscher, R. Bast, A. J. Thorvald-
sen and K. Ruud; J.Chem.Theor.Comp. 2010, DOI: 10.1021/ct100117s
XCFun Version 0.99 
----- Orbital basis set information -----
Your calculation utilizes the basis: def2-TZVP
   F. Weigend and R. Ahlrichs, Phys. Chem. Chem. Phys. 7, 3297 (2005).

================================================================================
                                        WARNINGS
                       Please study these warnings very carefully!
================================================================================


INFO   : the flag for use of LIBINT has been found!

================================================================================
                                       INPUT FILE
================================================================================
NAME = 172.in
|  1> #Run DFT-D3 single point of the dimer
|  2> ! wB97X-D3 def2-TZVP TIGHTSCF  CHELPG PAL8
|  3> 
|  4> %base "172_charges"
|  5> 
|  6> %scf
|  7> MaxIter 1000
|  8> end
|  9> %output
| 10>   Print[ P_Mayer ] 1
| 11>   Print[ P_NatPop ] 1
| 12>   Print[ P_Hirshfeld ] 1
| 13>   Print[ P_Mulliken ] 1
| 14>   Print [ P_Loewdin ] 1
| 15> end
| 16> 
| 17> * xyz 0 1
| 18>   C                      1.192799             -4.195803            -0.602249           
| 19>   O                      1.666724             -4.088809            0.709919            
| 20>   H                      2.433013             -4.743410            0.702376            
| 21>   H                      0.465404             -3.426715            -0.760269           
| 22>   H                      1.994914             -4.012707            -1.327426           
| 23>   H                      0.776439             -5.122151            -0.877539           
| 24> *
| 25> 
| 26>                          ****END OF INPUT****
================================================================================

                       ****************************
                       * Single Point Calculation *
                       ****************************

---------------------------------
CARTESIAN COORDINATES (ANGSTROEM)
---------------------------------
  C      1.192799   -4.195803   -0.602249
  O      1.666724   -4.088809    0.709919
  H      2.433013   -4.743410    0.702376
  H      0.465404   -3.426715   -0.760269
  H      1.994914   -4.012707   -1.327426
  H      0.776439   -5.122151   -0.877539

----------------------------
CARTESIAN COORDINATES (A.U.)
----------------------------
  NO LB      ZA    FRAG     MASS         X           Y           Z
   0 C     6.0000    0    12.011    2.254063   -7.928919   -1.138086
   1 O     8.0000    0    15.999    3.149652   -7.726729    1.341552
   2 H     1.0000    0     1.008    4.597728   -8.963746    1.327298
   3 H     1.0000    0     1.008    0.879486   -6.475553   -1.436700
   4 H     1.0000    0     1.008    3.769841   -7.582917   -2.508472
   5 H     1.0000    0     1.008    1.467257   -9.679463   -1.658308

--------------------------------
INTERNAL COORDINATES (ANGSTROEM)
--------------------------------
 C      0   0   0     0.000000000000     0.00000000     0.00000000
 O      1   0   0     1.399227458952     0.00000000     0.00000000
 H      2   1   0     1.007848300872   101.58612873     0.00000000
 H      1   2   3     1.070313112210   108.28198656   188.76081607
 H      1   2   3     1.096719790908   111.07537630   305.03937821
 H      1   2   3     1.052264629646   116.53048964    65.56163158

---------------------------
INTERNAL COORDINATES (A.U.)
---------------------------
 C      0   0   0     0.000000000000     0.00000000     0.00000000
 O      1   0   0     2.644156696482     0.00000000     0.00000000
 H      2   1   0     1.904557273186   101.58612873     0.00000000
 H      1   2   3     2.022598659622   108.28198656   188.76081607
 H      1   2   3     2.072500050468   111.07537630   305.03937821
 H      1   2   3     1.988491970443   116.53048964    65.56163158

---------------------
BASIS SET INFORMATION
---------------------
There are 3 groups of distinct atoms

 Group   1 Type C   : 11s6p2d1f contracted to 5s3p2d1f pattern {62111/411/11/1}
 Group   2 Type O   : 11s6p2d1f contracted to 5s3p2d1f pattern {62111/411/11/1}
 Group   3 Type H   : 5s1p contracted to 3s1p pattern {311/1}

Atom   0C    basis set group =>   1
Atom   1O    basis set group =>   2
Atom   2H    basis set group =>   3
Atom   3H    basis set group =>   3
Atom   4H    basis set group =>   3
Atom   5H    basis set group =>   3


           ************************************************************
           *        Program running with 8 parallel MPI-processes     *
           *              working on a common directory               *
           ************************************************************
------------------------------------------------------------------------------
                           ORCA GTO INTEGRAL CALCULATION
------------------------------------------------------------------------------

                         BASIS SET STATISTICS AND STARTUP INFO

 # of primitive gaussian shells          ...   64
 # of primitive gaussian functions       ...  124
 # of contracted shells                  ...   38
 # of contracted basis functions         ...   86
 Highest angular momentum                ...    3
 Maximum contraction depth               ...    6
 Integral package used                   ... LIBINT
 Integral threshhold            Thresh   ...  2.500e-11
 Primitive cut-off              TCut     ...  2.500e-12


------------------------------ INTEGRAL EVALUATION ----------------------------


 * One electron integrals 
 Pre-screening matrix                    ... done
 Shell pair data                         ... done (   0.000 sec)



           ************************************************************
           *        Program running with 8 parallel MPI-processes     *
           *              working on a common directory               *
           ************************************************************
-------------------------------------------------------------------------------
                                 ORCA SCF
-------------------------------------------------------------------------------

------------
SCF SETTINGS
------------
Hamiltonian:
 Density Functional     Method          .... DFT(GTOs)
 Exchange Functional    Exchange        .... WB97X-D3
 Correlation Functional Correlation     .... WB97X-D3
 Gradients option       PostSCFGGA      .... off
 Hybrid DFT is turned on
   Fraction HF Exchange ScalHFX         ....  0.195728
   Scaling of DF-GGA-X  ScalDFX         ....  0.000000
   Scaling of DF-GGA-C  ScalDFC         ....  1.000000
   Scaling of DF-LDA-C  ScalLDAC        ....  1.000000
   Perturbative correction              ....  0.000000
   Density functional embedding theory  .... OFF
 Long-range corrected/Screened/Range-Separated Hybrid DFT is turned on
   Amount of maximum screened exact exchange              ....  0.804272
   Range separation parameter mu (erf(mu*r12)/r12)        ....  0.250000


General Settings:
 Integral files         IntName         .... 172_charges
 Hartree-Fock type      HFTyp           .... RHF
 Total Charge           Charge          ....    0
 Multiplicity           Mult            ....    1
 Number of Electrons    NEL             ....   18
 Basis Dimension        Dim             ....   86
 Nuclear Repulsion      ENuc            ....     40.6782722845 Eh

Convergence Acceleration:
 DIIS                   CNVDIIS         .... on
   Start iteration      DIISMaxIt       ....    12
   Startup error        DIISStart       ....  0.200000
   # of expansion vecs  DIISMaxEq       ....     5
   Bias factor          DIISBfac        ....   1.050
   Max. coefficient     DIISMaxC        ....  10.000
 Newton-Raphson         CNVNR           .... off
 SOSCF                  CNVSOSCF        .... on
   Start iteration      SOSCFMaxIt      ....   150
   Startup grad/error   SOSCFStart      ....  0.003300
 Level Shifting         CNVShift        .... on
   Level shift para.    LevelShift      ....    0.2500
   Turn off err/grad.   ShiftErr        ....    0.0010
 Zerner damping         CNVZerner       .... off
 Static damping         CNVDamp         .... on
   Fraction old density DampFac         ....    0.7000
   Max. Damping (<1)    DampMax         ....    0.9800
   Min. Damping (>=0)   DampMin         ....    0.0000
   Turn off err/grad.   DampErr         ....    0.1000
 Fernandez-Rico         CNVRico         .... off

SCF Procedure:
 Maximum # iterations   MaxIter         ....  1000
 SCF integral mode      SCFMode         .... Direct
   Integral package                     .... LIBINT
 Reset frequency        DirectResetFreq ....    20
 Integral Threshold     Thresh          ....  2.500e-11 Eh
 Primitive CutOff       TCut            ....  2.500e-12 Eh

Convergence Tolerance:
 Convergence Check Mode ConvCheckMode   .... Total+1el-Energy
 Convergence forced     ConvForced      .... 0
 Energy Change          TolE            ....  1.000e-08 Eh
 1-El. energy change                    ....  1.000e-05 Eh
 Orbital Gradient       TolG            ....  1.000e-05
 Orbital Rotation angle TolX            ....  1.000e-05
 DIIS Error             TolErr          ....  5.000e-07


Diagonalization of the overlap matrix:
Smallest eigenvalue                        ... 1.518e-03
Time for diagonalization                   ...    0.039 sec
Threshold for overlap eigenvalues          ... 1.000e-08
Number of eigenvalues below threshold      ... 0
Time for construction of square roots      ...    0.005 sec
Total time needed                          ...    0.043 sec

-------------------
DFT GRID GENERATION
-------------------

General Integration Accuracy     IntAcc      ...  4.340
Radial Grid Type                 RadialGrid  ... Gauss-Chebyshev
Angular Grid (max. acc.)         AngularGrid ... Lebedev-110
Angular grid pruning method      GridPruning ... 3 (G Style)
Weight generation scheme         WeightScheme... Becke
Basis function cutoff            BFCut       ...    1.0000e-11
Integration weight cutoff        WCut        ...    1.0000e-14
Grids for H and He will be reduced by one unit

# of grid points (after initial pruning)     ...   6548 (   0.0 sec)
# of grid points (after weights+screening)   ...   6372 (   0.0 sec)
nearest neighbour list constructed           ...    0.0 sec
Grid point re-assignment to atoms done       ...    0.0 sec
Grid point division into batches done        ...    0.0 sec
Reduced shell lists constructed in    0.0 sec

Total number of grid points                  ...     6372
Total number of batches                      ...      103
Average number of points per batch           ...       61
Average number of grid points per atom       ...     1062
Average number of shells per batch           ...    31.14 (81.95%)
Average number of basis functions per batch  ...    71.14 (82.72%)
Average number of large shells per batch     ...    30.21 (97.02%)
Average number of large basis fcns per batch ...    69.07 (97.09%)
Maximum spatial batch extension              ...  19.79, 16.85, 14.02 au
Average spatial batch extension              ...   0.51,  0.47,  0.42 au

Time for grid setup =    0.035 sec

------------------------------
INITIAL GUESS: MODEL POTENTIAL
------------------------------
Loading Hartree-Fock densities                     ... done
Calculating cut-offs                               ... done
Setting up the integral package                    ... done
Initializing the effective Hamiltonian             ... done
Starting the Coulomb interaction                   ... done (   0.0 sec)
Reading the grid                                   ... done
Mapping shells                                     ... done
Starting the XC term evaluation                    ... done (   0.0 sec)
  promolecular density results
     # of electrons  =     17.999104648
     EX              =    -14.435775903
     EC              =     -0.576625815
     EX+EC           =    -15.012401718
Transforming the Hamiltonian                       ... done (   0.0 sec)
Diagonalizing the Hamiltonian                      ... done (   0.0 sec)
Back transforming the eigenvectors                 ... done (   0.0 sec)
Now organizing SCF variables                       ... done
                      ------------------
                      INITIAL GUESS DONE (   0.2 sec)
                      ------------------
--------------
SCF ITERATIONS
--------------
ITER       Energy         Delta-E        Max-DP      RMS-DP      [F,P]     Damp
               ***  Starting incremental Fock matrix formation  ***
  0   -115.6434057058   0.000000000000 0.03589130  0.00148397  0.2407209 0.7000
  1   -115.6808725024  -0.037466796663 0.02126427  0.00105642  0.1195774 0.7000
                               ***Turning on DIIS***
  2   -115.6983150309  -0.017442528430 0.02981645  0.00193116  0.0472675 0.0000
  3   -115.7266998502  -0.028384819366 0.01721450  0.00069171  0.0589547 0.0000
  4   -115.7312716237  -0.004571773487 0.00408072  0.00013542  0.0067855 0.0000
                      *** Initiating the SOSCF procedure ***
                           *** Shutting down DIIS ***
                      *** Re-Reading the Fockian *** 
                      *** Removing any level shift *** 
ITER      Energy       Delta-E        Grad      Rot      Max-DP    RMS-DP
  5   -115.73137294  -0.0001013203  0.000492  0.000492  0.000779  0.000046
               *** Restarting incremental Fock matrix formation ***
  6   -115.73138227  -0.0000093225  0.000168  0.000203  0.000496  0.000028
  7   -115.73138310  -0.0000008318  0.000053  0.000109  0.000250  0.000013
  8   -115.73138317  -0.0000000680  0.000027  0.000020  0.000040  0.000002
  9   -115.73138318  -0.0000000138  0.000012  0.000012  0.000019  0.000001
 10   -115.73138318  -0.0000000019  0.000004  0.000004  0.000006  0.000000
                  ***Gradient check signals convergence***
              ***Rediagonalizing the Fockian in SOSCF/NRSCF***

               *****************************************************
               *                     SUCCESS                       *
               *           SCF CONVERGED AFTER  11 CYCLES          *
               *****************************************************

Setting up the final grid:

General Integration Accuracy     IntAcc      ...  4.670
Radial Grid Type                 RadialGrid  ... Gauss-Chebyshev
Angular Grid (max. acc.)         AngularGrid ... Lebedev-302
Angular grid pruning method      GridPruning ... 3 (G Style)
Weight generation scheme         WeightScheme... Becke
Basis function cutoff            BFCut       ...    1.0000e-11
Integration weight cutoff        WCut        ...    1.0000e-14
Grids for H and He will be reduced by one unit

# of grid points (after initial pruning)     ...  26000 (   0.0 sec)
# of grid points (after weights+screening)   ...  25195 (   0.7 sec)
nearest neighbour list constructed           ...    0.0 sec
Grid point re-assignment to atoms done       ...    0.0 sec
Grid point division into batches done        ...    0.2 sec
Reduced shell lists constructed in    0.2 sec

Total number of grid points                  ...    25195
Total number of batches                      ...      398
Average number of points per batch           ...       63
Average number of grid points per atom       ...     4199
Average number of shells per batch           ...    31.12 (81.89%)
Average number of basis functions per batch  ...    71.16 (82.74%)
Average number of large shells per batch     ...    29.71 (95.46%)
Average number of large basis fcns per batch ...    68.41 (96.14%)
Maximum spatial batch extension              ...  16.88, 21.08, 15.73 au
Average spatial batch extension              ...   0.30,  0.36,  0.29 au

Final grid set up in    2.7 sec
Final integration                            ... done (   0.3 sec)
Change in XC energy                          ...     0.000097139
Integrated number of electrons               ...    18.000004903
Previous integrated no of electrons          ...    17.999223364

----------------
TOTAL SCF ENERGY
----------------

Total Energy       :         -115.73128604 Eh           -3149.20840 eV

Components:
Nuclear Repulsion  :           40.67827228 Eh            1106.91206 eV
Electronic Energy  :         -156.40955833 Eh           -4256.12046 eV
One Electron Energy:         -237.74740648 Eh           -6469.43583 eV
Two Electron Energy:           81.33784815 Eh            2213.31537 eV

Virial components:
Potential Energy   :         -231.03006352 Eh           -6286.64764 eV
Kinetic Energy     :          115.29877748 Eh            3137.43924 eV
Virial Ratio       :            2.00375120


DFT components:
N(Alpha)           :        9.000002451587 electrons
N(Beta)            :        9.000002451587 electrons
N(Total)           :       18.000004903174 electrons
E(XC)              :      -10.661788399593 Eh       
DFET-embed. en.    :        0.000000000000 Eh       

---------------
SCF CONVERGENCE
---------------

  Last Energy change         ...   -3.7436e-10  Tolerance :   1.0000e-08
  Last MAX-Density change    ...    2.2169e-06  Tolerance :   1.0000e-07
  Last RMS-Density change    ...    1.2674e-07  Tolerance :   5.0000e-09
  Last Orbital Gradient      ...    1.1483e-06  Tolerance :   1.0000e-05
  Last Orbital Rotation      ...    2.3286e-06  Tolerance :   1.0000e-05

             **** THE GBW FILE WAS UPDATED (172_charges.gbw) ****
             **** DENSITY FILE WAS UPDATED (172_charges.scfp.tmp) ****
             **** ENERGY FILE WAS UPDATED (172_charges.en.tmp) ****
----------------
ORBITAL ENERGIES
----------------

  NO   OCC          E(Eh)            E(eV) 
   0   2.0000     -19.236830      -523.4608 
   1   2.0000     -10.304098      -280.3888 
   2   2.0000      -1.136934       -30.9375 
   3   2.0000      -0.794277       -21.6134 
   4   2.0000      -0.612050       -16.6547 
   5   2.0000      -0.543579       -14.7915 
   6   2.0000      -0.526932       -14.3385 
   7   2.0000      -0.441012       -12.0005 
   8   2.0000      -0.373118       -10.1530 
   9   0.0000       0.108906         2.9635 
  10   0.0000       0.157118         4.2754 
  11   0.0000       0.203646         5.5415 
  12   0.0000       0.209673         5.7055 
  13   0.0000       0.229132         6.2350 
  14   0.0000       0.308583         8.3970 
  15   0.0000       0.312521         8.5041 
  16   0.0000       0.400299        10.8927 
  17   0.0000       0.453986        12.3536 
  18   0.0000       0.482058        13.1175 
  19   0.0000       0.535013        14.5585 
  20   0.0000       0.542656        14.7664 
  21   0.0000       0.564671        15.3655 
  22   0.0000       0.604700        16.4547 
  23   0.0000       0.621719        16.9178 
  24   0.0000       0.664012        18.0687 
  25   0.0000       0.774903        21.0862 
  26   0.0000       0.809974        22.0405 
  27   0.0000       0.859480        23.3876 
  28   0.0000       0.986103        26.8332 
  29   0.0000       1.027398        27.9569 
  30   0.0000       1.109627        30.1945 
  31   0.0000       1.367760        37.2186 
  32   0.0000       1.490310        40.5534 
  33   0.0000       1.550465        42.1903 
  34   0.0000       1.595667        43.4203 
  35   0.0000       1.625519        44.2326 
  36   0.0000       1.653450        44.9927 
  37   0.0000       1.675454        45.5914 
  38   0.0000       1.700000        46.2593 
  39   0.0000       1.815863        49.4121 
  40   0.0000       1.957374        53.2628 
  41   0.0000       2.021063        54.9959 
  42   0.0000       2.061944        56.1083 
  43   0.0000       2.073132        56.4128 
  44   0.0000       2.126126        57.8548 
  45   0.0000       2.233372        60.7731 
  46   0.0000       2.336955        63.5918 
  47   0.0000       2.357960        64.1634 
  48   0.0000       2.401447        65.3467 
  49   0.0000       2.481799        67.5332 
  50   0.0000       2.515286        68.4444 
  51   0.0000       2.603247        70.8380 
  52   0.0000       2.654120        72.2223 
  53   0.0000       2.718110        73.9635 
  54   0.0000       2.802060        76.2479 
  55   0.0000       2.851862        77.6031 
  56   0.0000       2.917305        79.3839 
  57   0.0000       2.977089        81.0107 
  58   0.0000       3.108854        84.5962 
  59   0.0000       3.155320        85.8606 
  60   0.0000       3.318798        90.3091 
  61   0.0000       3.393698        92.3472 
  62   0.0000       3.417537        92.9959 
  63   0.0000       3.521950        95.8371 
  64   0.0000       3.617184        98.4286 
  65   0.0000       3.672797        99.9419 
  66   0.0000       3.677772       100.0773 
  67   0.0000       3.979203       108.2796 
  68   0.0000       4.286141       116.6318 
  69   0.0000       4.312180       117.3404 
  70   0.0000       4.472030       121.6901 
  71   0.0000       4.532961       123.3481 
  72   0.0000       5.379991       146.3970 
  73   0.0000       5.476493       149.0229 
  74   0.0000       5.504463       149.7841 
  75   0.0000       5.757914       156.6808 
  76   0.0000       5.855453       159.3350 
  77   0.0000       6.030291       164.0926 
  78   0.0000       6.219857       169.2509 
  79   0.0000       6.529142       177.6670 
  80   0.0000       6.762131       184.0069 
  81   0.0000       6.803203       185.1246 
  82   0.0000       6.999499       190.4660 
  83   0.0000       7.177706       195.3153 
  84   0.0000      22.537460       613.2755 
  85   0.0000      43.659862      1188.0452 

                    ********************************
                    * MULLIKEN POPULATION ANALYSIS *
                    ********************************

-----------------------
MULLIKEN ATOMIC CHARGES
-----------------------
   0 C :   -0.162462
   1 O :   -0.462783
   2 H :    0.315010
   3 H :    0.114956
   4 H :    0.094910
   5 H :    0.100369
Sum of atomic charges:   -0.0000000

--------------------------------
MULLIKEN REDUCED ORBITAL CHARGES
--------------------------------
  0 C s       :     3.209113  s :     3.209113
      pz      :     0.728325  p :     2.848462
      px      :     1.045966
      py      :     1.074171
      dz2     :     0.023727  d :     0.097323
      dxz     :     0.026175
      dyz     :     0.029662
      dx2y2   :     0.006587
      dxy     :     0.011171
      f0      :     0.002451  f :     0.007565
      f+1     :     0.001727
      f-1     :     0.001760
      f+2     :     0.000402
      f-2     :     0.000666
      f+3     :     0.000400
      f-3     :     0.000158
  1 O s       :     3.815321  s :     3.815321
      pz      :     1.425026  p :     4.613567
      px      :     1.518717
      py      :     1.669823
      dz2     :     0.012606  d :     0.032331
      dxz     :     0.005135
      dyz     :     0.005250
      dx2y2   :     0.001219
      dxy     :     0.008120
      f0      :     0.000264  f :     0.001564
      f+1     :     0.000401
      f-1     :     0.000218
      f+2     :     0.000074
      f-2     :     0.000092
      f+3     :     0.000180
      f-3     :     0.000336
  2 H s       :     0.643070  s :     0.643070
      pz      :     0.010024  p :     0.041921
      px      :     0.016012
      py      :     0.015885
  3 H s       :     0.863924  s :     0.863924
      pz      :     0.003458  p :     0.021120
      px      :     0.008686
      py      :     0.008975
  4 H s       :     0.885661  s :     0.885661
      pz      :     0.006855  p :     0.019429
      px      :     0.008001
      py      :     0.004573
  5 H s       :     0.878768  s :     0.878768
      pz      :     0.003887  p :     0.020864
      px      :     0.006218
      py      :     0.010759


                     *******************************
                     * LOEWDIN POPULATION ANALYSIS *
                     *******************************

----------------------
LOEWDIN ATOMIC CHARGES
----------------------
   0 C :   -0.400954
   1 O :   -0.081844
   2 H :    0.200652
   3 H :    0.104117
   4 H :    0.094538
   5 H :    0.083490

-------------------------------
LOEWDIN REDUCED ORBITAL CHARGES
-------------------------------
  0 C s       :     2.844182  s :     2.844182
      pz      :     0.871932  p :     3.065482
      px      :     1.081149
      py      :     1.112400
      dz2     :     0.129592  d :     0.431855
      dxz     :     0.121090
      dyz     :     0.097681
      dx2y2   :     0.021495
      dxy     :     0.061996
      f0      :     0.016727  f :     0.059435
      f+1     :     0.011250
      f-1     :     0.014493
      f+2     :     0.007958
      f-2     :     0.005383
      f+3     :     0.002502
      f-3     :     0.001122
  1 O s       :     3.395368  s :     3.395368
      pz      :     1.500529  p :     4.608458
      px      :     1.487836
      py      :     1.620092
      dz2     :     0.027500  d :     0.073169
      dxz     :     0.014651
      dyz     :     0.013333
      dx2y2   :     0.002338
      dxy     :     0.015347
      f0      :     0.001137  f :     0.004849
      f+1     :     0.001264
      f-1     :     0.001075
      f+2     :     0.000268
      f-2     :     0.000318
      f+3     :     0.000250
      f-3     :     0.000537
  2 H s       :     0.663438  s :     0.663438
      pz      :     0.026854  p :     0.135910
      px      :     0.054998
      py      :     0.054058
  3 H s       :     0.833206  s :     0.833206
      pz      :     0.010295  p :     0.062678
      px      :     0.025240
      py      :     0.027144
  4 H s       :     0.846045  s :     0.846045
      pz      :     0.020484  p :     0.059417
      px      :     0.024393
      py      :     0.014540
  5 H s       :     0.849075  s :     0.849075
      pz      :     0.012888  p :     0.067435
      px      :     0.020519
      py      :     0.034028


                      *****************************
                      * MAYER POPULATION ANALYSIS *
                      *****************************

  NA   - Mulliken gross atomic population
  ZA   - Total nuclear charge
  QA   - Mulliken gross atomic charge
  VA   - Mayer's total valence
  BVA  - Mayer's bonded valence
  FA   - Mayer's free valence

  ATOM       NA         ZA         QA         VA         BVA        FA
  0 C      6.1625     6.0000    -0.1625     3.9477     3.9477    -0.0000
  1 O      8.4628     8.0000    -0.4628     1.8962     1.8962    -0.0000
  2 H      0.6850     1.0000     0.3150     0.9069     0.9069    -0.0000
  3 H      0.8850     1.0000     0.1150     0.9627     0.9627    -0.0000
  4 H      0.9051     1.0000     0.0949     0.9599     0.9599    -0.0000
  5 H      0.8996     1.0000     0.1004     0.9513     0.9513     0.0000

  Mayer bond orders larger than 0.1
B(  0-C ,  1-O ) :   1.0082 B(  0-C ,  3-H ) :   0.9771 B(  0-C ,  4-H ) :   0.9835 
B(  0-C ,  5-H ) :   0.9707 B(  1-O ,  2-H ) :   0.8971 


------------------
HIRSHFELD ANALYSIS
------------------

Total integrated alpha density =      8.999611682
Total integrated beta density  =      8.999611682

  ATOM     CHARGE      SPIN    
   0 C   -0.001185    0.000000
   1 O   -0.243476    0.000000
   2 H    0.163865    0.000000
   3 H    0.036698    0.000000
   4 H    0.020975    0.000000
   5 H    0.023899    0.000000

  TOTAL   0.000777    0.000000

-------
TIMINGS
-------

Total SCF time: 0 days 0 hours 0 min 28 sec 

Total time                  ....      28.836 sec
Sum of individual times     ....      24.865 sec  ( 86.2%)

Fock matrix formation       ....      17.402 sec  ( 60.3%)
  XC integration            ....       4.217 sec  ( 24.2% of F)
    Basis function eval.    ....       0.039 sec  (  0.9% of XC)
    Density eval.           ....       0.051 sec  (  1.2% of XC)
    XC-Functional eval.     ....       0.087 sec  (  2.1% of XC)
    XC-Potential eval.      ....       0.036 sec  (  0.9% of XC)
Diagonalization             ....       1.494 sec  (  5.2%)
Density matrix formation    ....       1.485 sec  (  5.1%)
Population analysis         ....       0.636 sec  (  2.2%)
Initial guess               ....       0.128 sec  (  0.4%)
Orbital Transformation      ....       0.000 sec  (  0.0%)
Orbital Orthonormalization  ....       0.000 sec  (  0.0%)
DIIS solution               ....       0.331 sec  (  1.1%)
SOSCF solution              ....       0.636 sec  (  2.2%)
Grid generation             ....       2.753 sec  (  9.5%)


-------------------------------------------------------------------------------
                          DFT DISPERSION CORRECTION                            
                                                                               
                              DFTD3 V3.1  Rev 1                                
                              USING zero damping                               
-------------------------------------------------------------------------------
The omegaB97X-D3 functional is recognized. Fit by Chai et al.
Active option DFTDOPT                   ...         3   

molecular C6(AA) [au] = 208.666950 


            DFT-D V3
 parameters
 s6 scaling factor         :     1.0000 
 rs6 scaling factor        :     1.2810 
 s8 scaling factor         :     1.0000 
 rs8 scaling factor        :     1.0940 
 Damping factor alpha6     :    14.0000 
 Damping factor alpha8     :    16.0000 
 ad hoc parameters k1-k3   :    16.0000     1.3333    -4.0000 

 Edisp/kcal,au: -0.136180105783  -0.000217016789 
 E6   /kcal   :  -0.026169166 
 E8   /kcal   :  -0.110010940 
 % E8         :  80.783414655 

-------------------------   ----------------
Dispersion correction           -0.000217017
-------------------------   ----------------


-------------------------   --------------------
FINAL SINGLE POINT ENERGY      -115.731503060264
-------------------------   --------------------


                            ***************************************
                            *     ORCA property calculations      *
                            ***************************************

                                    ---------------------
                                    Active property flags
                                    ---------------------
   (+) Dipole Moment


------------------------------------------------------------------------------
                       ORCA ELECTRIC PROPERTIES CALCULATION
------------------------------------------------------------------------------

Dipole Moment Calculation                       ... on
Quadrupole Moment Calculation                   ... off
Polarizability Calculation                      ... off
GBWName                                         ... 172_charges.gbw
Electron density file                           ... 172_charges.scfp.tmp
The origin for moment calculation is the CENTER OF MASS  = ( 2.754662, -7.858981  0.108719)

-------------
DIPOLE MOMENT
-------------
                                X             Y             Z
Electronic contribution:      0.42357       0.19700       1.82439
Nuclear contribution   :     -0.14800      -0.62736      -2.32921
                        -----------------------------------------
Total Dipole Moment    :      0.27557      -0.43036      -0.50482
                        -----------------------------------------
Magnitude (a.u.)       :      0.71833
Magnitude (Debye)      :      1.82585



--------------------
Rotational spectrum 
--------------------
 
Rotational constants in cm-1:     4.323400     0.855428     0.815835 
Rotational constants in MHz : 129612.257622 25645.092913 24458.111815 

 Dipole components along the rotational axes: 
x,y,z [a.u.] :    -0.381599     0.608578    -0.003433 
x,y,z [Debye]:    -0.969948     1.546882    -0.008725 

 
------------------------------------------------------------------------------
                      ORCA CHELPG CHARGES GENERATION
------------------------------------------------------------------------------

GBW file                           ... 172_charges.gbw

Reading the GBW file               ... done

Grid spacing                       ...     0.300000
Point Cut-Off                      ...     2.800000
Van-der-Waals Radii                ...        COSMO
Total charge                       ...            0


Number of points X direction       ...           25
Number of points Y direction       ...           24
Number of points Z direction       ...           25
Maximum number of possible points  ...        15000
Final number of points             ...         5880


CHELPG Charges            
--------------------------------
  0   C   :       0.157698
  1   O   :      -0.586838
  2   H   :       0.381977
  3   H   :       0.061234
  4   H   :      -0.012651
  5   H   :      -0.001419
--------------------------------
Total charge:     0.000000
--------------------------------

CHELPG charges calculated...

Timings for individual parts in CHELPG calculation:
Grid generation                 ...        0.001 sec (=   0.000 min)
Potential calculation           ...        0.674 sec (=   0.011 min)
Fit to the potential            ...        0.001 sec (=   0.000 min)
------------------------------------------------------------------------------


Timings for individual modules:

Sum of individual times         ...       37.849 sec (=   0.631 min)
GTO integral calculation        ...        4.566 sec (=   0.076 min)  12.1 %
SCF iterations                  ...       32.532 sec (=   0.542 min)  86.0 %
CHELPG charge generation        ...        0.751 sec (=   0.013 min)   2.0 %
                             ****ORCA TERMINATED NORMALLY****
TOTAL RUN TIME: 0 days 0 hours 0 minutes 41 seconds 81 msec
