
                                 *****************
                                 * O   R   C   A *
                                 *****************

           --- An Ab Initio, DFT and Semiempirical electronic structure package ---

                  #######################################################
                  #                        -***-                        #
                  #          Department of theory and spectroscopy      #
                  #               Directorship: Frank Neese             #
                  #        Max Planck Institute fuer Kohlenforschung    #
                  #                Kaiser Wilhelm Platz 1               #
                  #                 D-45470 Muelheim/Ruhr               #
                  #                      Germany                        #
                  #                                                     #
                  #                  All rights reserved                #
                  #                        -***-                        #
                  #######################################################


                         Program Version 4.1.2  - RELEASE  -


 With contributions from (in alphabetic order):
   Daniel Aravena         : Magnetic Properties
   Michael Atanasov       : Ab Initio Ligand Field Theory
   Alexander A. Auer      : GIAO ZORA
   Ute Becker             : Parallelization
   Giovanni Bistoni       : ED, Open-shell LED
   Martin Brehm           : Molecular dynamics
   Dmytro Bykov           : SCF Hessian
   Vijay G. Chilkuri      : MRCI spin determinant printing
   Dipayan Datta          : RHF DLPNO-CCSD density
   Achintya Kumar Dutta   : EOM-CC, STEOM-CC
   Dmitry Ganyushin       : Spin-Orbit,Spin-Spin,Magnetic field MRCI
   Miquel Garcia          : C-PCM Hessian
   Yang Guo               : DLPNO-NEVPT2, CIM, IAO-localization
   Andreas Hansen         : Spin unrestricted coupled pair/coupled cluster methods
   Benjamin Helmich-Paris : CASSCF linear response (MC-RPA)
   Lee Huntington         : MR-EOM, pCC
   Robert Izsak           : Overlap fitted RIJCOSX, COSX-SCS-MP3, EOM
   Christian Kollmar      : KDIIS, OOCD, Brueckner-CCSD(T), CCSD density
   Simone Kossmann        : Meta GGA functionals, TD-DFT gradient, OOMP2, MP2 Hessian
   Martin Krupicka        : AUTO-CI
   Lucas Lang             : DCDCAS
   Dagmar Lenk            : GEPOL surface, SMD
   Dimitrios Liakos       : Extrapolation schemes; parallel MDCI
   Dimitrios Manganas     : ROCIS; embedding schemes
   Dimitrios Pantazis     : SARC Basis sets
   Taras Petrenko         : DFT Hessian,TD-DFT gradient, ASA, ECA, R-Raman, ABS, FL, XAS/XES, NRVS
   Peter Pinski           : DLPNO-MP2, DLPNO-MP2 Gradient
   Christoph Reimann      : Effective Core Potentials
   Marius Retegan         : Local ZFS, SOC
   Christoph Riplinger    : Optimizer, TS searches, QM/MM, DLPNO-CCSD(T), (RO)-DLPNO pert. Triples
   Tobias Risthaus        : Range-separated hybrids, TD-DFT gradient, RPA, STAB
   Michael Roemelt        : Restricted open shell CIS
   Masaaki Saitow         : Open-shell DLPNO
   Barbara Sandhoefer     : DKH picture change effects
   Avijit Sen             : IP-ROCIS
   Kantharuban Sivalingam : CASSCF convergence, NEVPT2, FIC-MRCI
   Bernardo de Souza      : ESD, SOC TD-DFT
   Georgi Stoychev        : AutoAux, RI-MP2 NMR
   Willem Van den Heuvel  : Paramagnetic NMR
   Boris Wezisla          : Elementary symmetry handling
   Frank Wennmohs         : Technical directorship


 We gratefully acknowledge several colleagues who have allowed us to
 interface, adapt or use parts of their codes:
   Stefan Grimme, W. Hujo, H. Kruse,             : VdW corrections, initial TS optimization,
                  C. Bannwarth                     DFT functionals, gCP, sTDA/sTD-DF
   Ed Valeev                                     : LibInt (2-el integral package), F12 methods
   Garnet Chan, S. Sharma, J. Yang, R. Olivares  : DMRG
   Ulf Ekstrom                                   : XCFun DFT Library
   Mihaly Kallay                                 : mrcc  (arbitrary order and MRCC methods)
   Andreas Klamt, Michael Diedenhofen            : otool_cosmo (COSMO solvation model)
   Jiri Pittner, Ondrej Demel                    : Mk-CCSD
   Frank Weinhold                                : gennbo (NPA and NBO analysis)
   Christopher J. Cramer and Donald G. Truhlar   : smd solvation model
   Lars Goerigk                                  : TD-DFT with DH, B97 family of functionals
   V. Asgeirsson, H. Jonsson                     : NEB implementation
   FAccTs GmbH                                   : IRC, NEB, NEB-TS, Multilevel


 Your calculation uses the libint2 library for the computation of 2-el integrals
 For citations please refer to: http://libint.valeyev.net

 This ORCA versions uses:
   CBLAS   interface :  Fast vector & matrix operations
   LAPACKE interface :  Fast linear algebra routines
   SCALAPACK package :  Parallel linear algebra routines


Your calculation utilizes the atom-pairwise dispersion correction
with the zero-damping scheme (D30)
Cite in your paper:
S.Grimme, J.Antony, S.Ehrlich and H.Krieg, J.Chem.Phys., 132, (2010), 154104 
   

XCFun DFT library Copyright 2009-2010 Ulf Ekstrom and contributors.
See http://admol.org/xcfun for more information. This is free soft-
ware; see the source code for copying conditions. There is ABSOLUTELY
NO WARRANTY; not even for MERCHANTABILITY or FITNESS FOR A PARTICULAR
PURPOSE. For details see the documentation. Scientific users of this 
library should cite U. Ekstrom, L. Visscher, R. Bast, A. J. Thorvald-
sen and K. Ruud; J.Chem.Theor.Comp. 2010, DOI: 10.1021/ct100117s
XCFun Version 0.99 
----- Orbital basis set information -----
Your calculation utilizes the basis: def2-TZVP
   F. Weigend and R. Ahlrichs, Phys. Chem. Chem. Phys. 7, 3297 (2005).

================================================================================
                                        WARNINGS
                       Please study these warnings very carefully!
================================================================================


INFO   : the flag for use of LIBINT has been found!

================================================================================
                                       INPUT FILE
================================================================================
NAME = 145.in
|  1> #Run DFT-D3 single point of the dimer
|  2> ! wB97X-D3 def2-TZVP TIGHTSCF  CHELPG PAL8
|  3> 
|  4> %base "145_charges"
|  5> 
|  6> %scf
|  7> MaxIter 1000
|  8> end
|  9> %output
| 10>   Print[ P_Mayer ] 1
| 11>   Print[ P_NatPop ] 1
| 12>   Print[ P_Hirshfeld ] 1
| 13>   Print[ P_Mulliken ] 1
| 14>   Print [ P_Loewdin ] 1
| 15> end
| 16> 
| 17> * xyz 0 1
| 18>   C                      5.436401             5.682114             -7.953049           
| 19>   O                      5.447600             4.319745             -7.916725           
| 20>   H                      5.328296             3.934206             -8.837398           
| 21>   H                      4.483021             6.011303             -7.510054           
| 22>   H                      6.295782             6.141067             -7.449564           
| 23>   H                      5.344783             6.044554             -8.997836           
| 24> *
| 25> 
| 26>                          ****END OF INPUT****
================================================================================

                       ****************************
                       * Single Point Calculation *
                       ****************************

---------------------------------
CARTESIAN COORDINATES (ANGSTROEM)
---------------------------------
  C      5.436401    5.682114   -7.953049
  O      5.447600    4.319745   -7.916725
  H      5.328296    3.934206   -8.837398
  H      4.483021    6.011303   -7.510054
  H      6.295782    6.141067   -7.449564
  H      5.344783    6.044554   -8.997836

----------------------------
CARTESIAN COORDINATES (A.U.)
----------------------------
  NO LB      ZA    FRAG     MASS         X           Y           Z
   0 C     6.0000    0    12.011   10.273309   10.737639  -15.029085
   1 O     8.0000    0    15.999   10.294472    8.163135  -14.960442
   2 H     1.0000    0     1.008   10.069020    7.434572  -16.700262
   3 H     1.0000    0     1.008    8.471682   11.359716  -14.191945
   4 H     1.0000    0     1.008   11.897304   11.604935  -14.077636
   5 H     1.0000    0     1.008   10.100176   11.422552  -17.003446

--------------------------------
INTERNAL COORDINATES (ANGSTROEM)
--------------------------------
 C      0   0   0     0.000000000000     0.00000000     0.00000000
 O      1   0   0     1.362899168221     0.00000000     0.00000000
 H      2   1   0     1.005242526889   110.97705912     0.00000000
 H      1   2   3     1.101609455363   107.16371095   107.92352859
 H      1   2   3     1.096663441807   113.55701063   231.66244718
 H      1   2   3     1.109656021879   110.62616545   357.39879980

---------------------------
INTERNAL COORDINATES (A.U.)
---------------------------
 C      0   0   0     0.000000000000     0.00000000     0.00000000
 O      1   0   0     2.575506176087     0.00000000     0.00000000
 H      2   1   0     1.899633073991   110.97705912     0.00000000
 H      1   2   3     2.081740177175   107.16371095   107.92352859
 H      1   2   3     2.072393566098   113.55701063   231.66244718
 H      1   2   3     2.096945984208   110.62616545   357.39879980

---------------------
BASIS SET INFORMATION
---------------------
There are 3 groups of distinct atoms

 Group   1 Type C   : 11s6p2d1f contracted to 5s3p2d1f pattern {62111/411/11/1}
 Group   2 Type O   : 11s6p2d1f contracted to 5s3p2d1f pattern {62111/411/11/1}
 Group   3 Type H   : 5s1p contracted to 3s1p pattern {311/1}

Atom   0C    basis set group =>   1
Atom   1O    basis set group =>   2
Atom   2H    basis set group =>   3
Atom   3H    basis set group =>   3
Atom   4H    basis set group =>   3
Atom   5H    basis set group =>   3


           ************************************************************
           *        Program running with 8 parallel MPI-processes     *
           *              working on a common directory               *
           ************************************************************
------------------------------------------------------------------------------
                           ORCA GTO INTEGRAL CALCULATION
------------------------------------------------------------------------------

                         BASIS SET STATISTICS AND STARTUP INFO

 # of primitive gaussian shells          ...   64
 # of primitive gaussian functions       ...  124
 # of contracted shells                  ...   38
 # of contracted basis functions         ...   86
 Highest angular momentum                ...    3
 Maximum contraction depth               ...    6
 Integral package used                   ... LIBINT
 Integral threshhold            Thresh   ...  2.500e-11
 Primitive cut-off              TCut     ...  2.500e-12


------------------------------ INTEGRAL EVALUATION ----------------------------


 * One electron integrals 
 Pre-screening matrix                    ... done
 Shell pair data                         ... done (   0.000 sec)



           ************************************************************
           *        Program running with 8 parallel MPI-processes     *
           *              working on a common directory               *
           ************************************************************
-------------------------------------------------------------------------------
                                 ORCA SCF
-------------------------------------------------------------------------------

------------
SCF SETTINGS
------------
Hamiltonian:
 Density Functional     Method          .... DFT(GTOs)
 Exchange Functional    Exchange        .... WB97X-D3
 Correlation Functional Correlation     .... WB97X-D3
 Gradients option       PostSCFGGA      .... off
 Hybrid DFT is turned on
   Fraction HF Exchange ScalHFX         ....  0.195728
   Scaling of DF-GGA-X  ScalDFX         ....  0.000000
   Scaling of DF-GGA-C  ScalDFC         ....  1.000000
   Scaling of DF-LDA-C  ScalLDAC        ....  1.000000
   Perturbative correction              ....  0.000000
   Density functional embedding theory  .... OFF
 Long-range corrected/Screened/Range-Separated Hybrid DFT is turned on
   Amount of maximum screened exact exchange              ....  0.804272
   Range separation parameter mu (erf(mu*r12)/r12)        ....  0.250000


General Settings:
 Integral files         IntName         .... 145_charges
 Hartree-Fock type      HFTyp           .... RHF
 Total Charge           Charge          ....    0
 Multiplicity           Mult            ....    1
 Number of Electrons    NEL             ....   18
 Basis Dimension        Dim             ....   86
 Nuclear Repulsion      ENuc            ....     40.8959902007 Eh

Convergence Acceleration:
 DIIS                   CNVDIIS         .... on
   Start iteration      DIISMaxIt       ....    12
   Startup error        DIISStart       ....  0.200000
   # of expansion vecs  DIISMaxEq       ....     5
   Bias factor          DIISBfac        ....   1.050
   Max. coefficient     DIISMaxC        ....  10.000
 Newton-Raphson         CNVNR           .... off
 SOSCF                  CNVSOSCF        .... on
   Start iteration      SOSCFMaxIt      ....   150
   Startup grad/error   SOSCFStart      ....  0.003300
 Level Shifting         CNVShift        .... on
   Level shift para.    LevelShift      ....    0.2500
   Turn off err/grad.   ShiftErr        ....    0.0010
 Zerner damping         CNVZerner       .... off
 Static damping         CNVDamp         .... on
   Fraction old density DampFac         ....    0.7000
   Max. Damping (<1)    DampMax         ....    0.9800
   Min. Damping (>=0)   DampMin         ....    0.0000
   Turn off err/grad.   DampErr         ....    0.1000
 Fernandez-Rico         CNVRico         .... off

SCF Procedure:
 Maximum # iterations   MaxIter         ....  1000
 SCF integral mode      SCFMode         .... Direct
   Integral package                     .... LIBINT
 Reset frequency        DirectResetFreq ....    20
 Integral Threshold     Thresh          ....  2.500e-11 Eh
 Primitive CutOff       TCut            ....  2.500e-12 Eh

Convergence Tolerance:
 Convergence Check Mode ConvCheckMode   .... Total+1el-Energy
 Convergence forced     ConvForced      .... 0
 Energy Change          TolE            ....  1.000e-08 Eh
 1-El. energy change                    ....  1.000e-05 Eh
 Orbital Gradient       TolG            ....  1.000e-05
 Orbital Rotation angle TolX            ....  1.000e-05
 DIIS Error             TolErr          ....  5.000e-07


Diagonalization of the overlap matrix:
Smallest eigenvalue                        ... 1.713e-03
Time for diagonalization                   ...    0.058 sec
Threshold for overlap eigenvalues          ... 1.000e-08
Number of eigenvalues below threshold      ... 0
Time for construction of square roots      ...    0.161 sec
Total time needed                          ...    0.219 sec

-------------------
DFT GRID GENERATION
-------------------

General Integration Accuracy     IntAcc      ...  4.340
Radial Grid Type                 RadialGrid  ... Gauss-Chebyshev
Angular Grid (max. acc.)         AngularGrid ... Lebedev-110
Angular grid pruning method      GridPruning ... 3 (G Style)
Weight generation scheme         WeightScheme... Becke
Basis function cutoff            BFCut       ...    1.0000e-11
Integration weight cutoff        WCut        ...    1.0000e-14
Grids for H and He will be reduced by one unit

# of grid points (after initial pruning)     ...   6548 (   0.1 sec)
# of grid points (after weights+screening)   ...   6362 (   1.1 sec)
nearest neighbour list constructed           ...    0.0 sec
Grid point re-assignment to atoms done       ...    0.0 sec
Grid point division into batches done        ...    0.0 sec
Reduced shell lists constructed in    0.0 sec

Total number of grid points                  ...     6362
Total number of batches                      ...      102
Average number of points per batch           ...       62
Average number of grid points per atom       ...     1060
Average number of shells per batch           ...    31.86 (83.83%)
Average number of basis functions per batch  ...    73.14 (85.05%)
Average number of large shells per batch     ...    30.64 (96.19%)
Average number of large basis fcns per batch ...    70.79 (96.78%)
Maximum spatial batch extension              ...  25.60, 16.75, 13.63 au
Average spatial batch extension              ...   0.53,  0.38,  0.38 au

Time for grid setup =    3.184 sec

------------------------------
INITIAL GUESS: MODEL POTENTIAL
------------------------------
Loading Hartree-Fock densities                     ... done
Calculating cut-offs                               ... done
Setting up the integral package                    ... done
Initializing the effective Hamiltonian             ... done
Starting the Coulomb interaction                   ... done (   0.0 sec)
Reading the grid                                   ... done
Mapping shells                                     ... done
Starting the XC term evaluation                    ... done (   0.2 sec)
  promolecular density results
     # of electrons  =     17.994379605
     EX              =    -14.432038326
     EC              =     -0.576246797
     EX+EC           =    -15.008285123
Transforming the Hamiltonian                       ... done (   0.0 sec)
Diagonalizing the Hamiltonian                      ... done (   0.2 sec)
Back transforming the eigenvectors                 ... done (   0.0 sec)
Now organizing SCF variables                       ... done
                      ------------------
                      INITIAL GUESS DONE (   3.9 sec)
                      ------------------
--------------
SCF ITERATIONS
--------------
ITER       Energy         Delta-E        Max-DP      RMS-DP      [F,P]     Damp
               ***  Starting incremental Fock matrix formation  ***
  0   -115.6376345056   0.000000000000 0.03817789  0.00155221  0.2624515 0.7000
  1   -115.6771346812  -0.039500175640 0.02375971  0.00110278  0.1316770 0.7000
                               ***Turning on DIIS***
  2   -115.6950895789  -0.017954897701 0.03614927  0.00197189  0.0517098 0.0000
  3   -115.7240325725  -0.028942993595 0.01843960  0.00072153  0.0632220 0.0000
  4   -115.7289972443  -0.004964671770 0.00406725  0.00013954  0.0066007 0.0000
                      *** Initiating the SOSCF procedure ***
                           *** Shutting down DIIS ***
                      *** Re-Reading the Fockian *** 
                      *** Removing any level shift *** 
ITER      Energy       Delta-E        Grad      Rot      Max-DP    RMS-DP
  5   -115.72909557  -0.0000983245  0.000429  0.000429  0.000832  0.000047
               *** Restarting incremental Fock matrix formation ***
  6   -115.72910449  -0.0000089176  0.000139  0.000192  0.000421  0.000027
  7   -115.72910524  -0.0000007510  0.000048  0.000100  0.000208  0.000013
  8   -115.72910529  -0.0000000537  0.000029  0.000022  0.000041  0.000002
  9   -115.72910531  -0.0000000170  0.000009  0.000010  0.000016  0.000001
 10   -115.72910531  -0.0000000012  0.000003  0.000003  0.000005  0.000000
                  ***Gradient check signals convergence***
              ***Rediagonalizing the Fockian in SOSCF/NRSCF***

               *****************************************************
               *                     SUCCESS                       *
               *           SCF CONVERGED AFTER  11 CYCLES          *
               *****************************************************

Setting up the final grid:

General Integration Accuracy     IntAcc      ...  4.670
Radial Grid Type                 RadialGrid  ... Gauss-Chebyshev
Angular Grid (max. acc.)         AngularGrid ... Lebedev-302
Angular grid pruning method      GridPruning ... 3 (G Style)
Weight generation scheme         WeightScheme... Becke
Basis function cutoff            BFCut       ...    1.0000e-11
Integration weight cutoff        WCut        ...    1.0000e-14
Grids for H and He will be reduced by one unit

# of grid points (after initial pruning)     ...  26000 (   0.0 sec)
# of grid points (after weights+screening)   ...  25136 (   0.0 sec)
nearest neighbour list constructed           ...    0.0 sec
Grid point re-assignment to atoms done       ...    0.0 sec
Grid point division into batches done        ...    0.1 sec
Reduced shell lists constructed in    0.1 sec

Total number of grid points                  ...    25136
Total number of batches                      ...      395
Average number of points per batch           ...       63
Average number of grid points per atom       ...     4189
Average number of shells per batch           ...    31.71 (83.44%)
Average number of basis functions per batch  ...    72.37 (84.15%)
Average number of large shells per batch     ...    30.08 (94.87%)
Average number of large basis fcns per batch ...    69.37 (95.85%)
Maximum spatial batch extension              ...  16.88, 15.72, 16.53 au
Average spatial batch extension              ...   0.31,  0.28,  0.28 au

Final grid set up in    0.1 sec
Final integration                            ... done (   0.1 sec)
Change in XC energy                          ...     0.000065193
Integrated number of electrons               ...    18.000004853
Previous integrated no of electrons          ...    17.997797024

----------------
TOTAL SCF ENERGY
----------------

Total Energy       :         -115.72904012 Eh           -3149.14728 eV

Components:
Nuclear Repulsion  :           40.89599020 Eh            1112.83647 eV
Electronic Energy  :         -156.62503032 Eh           -4261.98375 eV
One Electron Energy:         -238.21351463 Eh           -6482.11928 eV
Two Electron Energy:           81.58848431 Eh            2220.13553 eV

Virial components:
Potential Energy   :         -230.97251767 Eh           -6285.08173 eV
Kinetic Energy     :          115.24347755 Eh            3135.93445 eV
Virial Ratio       :            2.00421336


DFT components:
N(Alpha)           :        9.000002426329 electrons
N(Beta)            :        9.000002426329 electrons
N(Total)           :       18.000004852659 electrons
E(XC)              :      -10.652138115117 Eh       
DFET-embed. en.    :        0.000000000000 Eh       

---------------
SCF CONVERGENCE
---------------

  Last Energy change         ...   -1.9544e-10  Tolerance :   1.0000e-08
  Last MAX-Density change    ...    1.7290e-06  Tolerance :   1.0000e-07
  Last RMS-Density change    ...    9.8833e-08  Tolerance :   5.0000e-09
  Last Orbital Gradient      ...    9.3750e-07  Tolerance :   1.0000e-05
  Last Orbital Rotation      ...    7.7304e-07  Tolerance :   1.0000e-05

             **** THE GBW FILE WAS UPDATED (145_charges.gbw) ****
             **** DENSITY FILE WAS UPDATED (145_charges.scfp.tmp) ****
             **** ENERGY FILE WAS UPDATED (145_charges.en.tmp) ****
----------------
ORBITAL ENERGIES
----------------

  NO   OCC          E(Eh)            E(eV) 
   0   2.0000     -19.230591      -523.2910 
   1   2.0000     -10.310295      -280.5574 
   2   2.0000      -1.143135       -31.1063 
   3   2.0000      -0.786930       -21.4135 
   4   2.0000      -0.616215       -16.7681 
   5   2.0000      -0.549091       -14.9415 
   6   2.0000      -0.529545       -14.4097 
   7   2.0000      -0.421743       -11.4762 
   8   2.0000      -0.366866        -9.9829 
   9   0.0000       0.105318         2.8659 
  10   0.0000       0.156092         4.2475 
  11   0.0000       0.197245         5.3673 
  12   0.0000       0.211357         5.7513 
  13   0.0000       0.238493         6.4897 
  14   0.0000       0.297977         8.1084 
  15   0.0000       0.311729         8.4826 
  16   0.0000       0.423140        11.5142 
  17   0.0000       0.461073        12.5464 
  18   0.0000       0.469121        12.7654 
  19   0.0000       0.529708        14.4141 
  20   0.0000       0.546743        14.8776 
  21   0.0000       0.558853        15.2072 
  22   0.0000       0.601462        16.3666 
  23   0.0000       0.612036        16.6543 
  24   0.0000       0.699011        19.0211 
  25   0.0000       0.769246        20.9323 
  26   0.0000       0.795765        21.6539 
  27   0.0000       0.862720        23.4758 
  28   0.0000       0.990312        26.9478 
  29   0.0000       1.067868        29.0582 
  30   0.0000       1.133282        30.8382 
  31   0.0000       1.361237        37.0411 
  32   0.0000       1.453907        39.5628 
  33   0.0000       1.542021        41.9605 
  34   0.0000       1.614267        43.9265 
  35   0.0000       1.624756        44.2119 
  36   0.0000       1.648275        44.8518 
  37   0.0000       1.684308        45.8324 
  38   0.0000       1.721336        46.8399 
  39   0.0000       1.762004        47.9466 
  40   0.0000       1.949631        53.0522 
  41   0.0000       2.009156        54.6719 
  42   0.0000       2.028271        55.1921 
  43   0.0000       2.069081        56.3026 
  44   0.0000       2.173494        59.1438 
  45   0.0000       2.242202        61.0134 
  46   0.0000       2.338400        63.6311 
  47   0.0000       2.379987        64.7628 
  48   0.0000       2.431688        66.1696 
  49   0.0000       2.447168        66.5908 
  50   0.0000       2.485006        67.6204 
  51   0.0000       2.570262        69.9404 
  52   0.0000       2.597701        70.6871 
  53   0.0000       2.658569        72.3434 
  54   0.0000       2.830758        77.0288 
  55   0.0000       2.877495        78.3006 
  56   0.0000       2.927346        79.6571 
  57   0.0000       2.978074        81.0375 
  58   0.0000       3.111008        84.6548 
  59   0.0000       3.170523        86.2743 
  60   0.0000       3.285358        89.3991 
  61   0.0000       3.394229        92.3617 
  62   0.0000       3.484236        94.8109 
  63   0.0000       3.536698        96.2384 
  64   0.0000       3.644713        99.1777 
  65   0.0000       3.654521        99.4446 
  66   0.0000       3.705153       100.8223 
  67   0.0000       3.940104       107.2157 
  68   0.0000       4.162180       113.2587 
  69   0.0000       4.332300       117.8879 
  70   0.0000       4.431217       120.5795 
  71   0.0000       4.527187       123.1910 
  72   0.0000       5.351947       145.6339 
  73   0.0000       5.421551       147.5279 
  74   0.0000       5.561995       151.3496 
  75   0.0000       5.877707       159.9405 
  76   0.0000       5.920400       161.1023 
  77   0.0000       5.998228       163.2201 
  78   0.0000       6.246726       169.9821 
  79   0.0000       6.518882       177.3878 
  80   0.0000       6.774572       184.3455 
  81   0.0000       6.855176       186.5388 
  82   0.0000       7.040316       191.5767 
  83   0.0000       7.181766       195.4258 
  84   0.0000      22.497693       612.1933 
  85   0.0000      43.699730      1189.1301 

                    ********************************
                    * MULLIKEN POPULATION ANALYSIS *
                    ********************************

-----------------------
MULLIKEN ATOMIC CHARGES
-----------------------
   0 C :   -0.153103
   1 O :   -0.469884
   2 H :    0.325453
   3 H :    0.095567
   4 H :    0.108975
   5 H :    0.092991
Sum of atomic charges:    0.0000000

--------------------------------
MULLIKEN REDUCED ORBITAL CHARGES
--------------------------------
  0 C s       :     3.217688  s :     3.217688
      pz      :     1.069589  p :     2.817247
      px      :     1.058863
      py      :     0.688794
      dz2     :     0.008748  d :     0.109285
      dxz     :     0.003122
      dyz     :     0.034053
      dx2y2   :     0.013856
      dxy     :     0.049506
      f0      :     0.001213  f :     0.008882
      f+1     :     0.000186
      f-1     :     0.000822
      f+2     :     0.001760
      f-2     :    -0.000019
      f+3     :     0.003384
      f-3     :     0.001535
  1 O s       :     3.787726  s :     3.787726
      pz      :     1.453466  p :     4.649142
      px      :     1.882540
      py      :     1.313137
      dz2     :     0.009679  d :     0.031261
      dxz     :     0.002067
      dyz     :     0.007860
      dx2y2   :     0.006668
      dxy     :     0.004987
      f0      :     0.000243  f :     0.001755
      f+1     :     0.000080
      f-1     :     0.000377
      f+2     :     0.000263
      f-2     :     0.000027
      f+3     :     0.000324
      f-3     :     0.000442
  2 H s       :     0.631883  s :     0.631883
      pz      :     0.016008  p :     0.042664
      px      :     0.015762
      py      :     0.010894
  3 H s       :     0.884275  s :     0.884275
      pz      :     0.005721  p :     0.020157
      px      :     0.010548
      py      :     0.003888
  4 H s       :     0.871284  s :     0.871284
      pz      :     0.005969  p :     0.019741
      px      :     0.009253
      py      :     0.004519
  5 H s       :     0.888037  s :     0.888037
      pz      :     0.011030  p :     0.018972
      px      :     0.004201
      py      :     0.003742


                     *******************************
                     * LOEWDIN POPULATION ANALYSIS *
                     *******************************

----------------------
LOEWDIN ATOMIC CHARGES
----------------------
   0 C :   -0.431490
   1 O :   -0.063142
   2 H :    0.199992
   3 H :    0.097437
   4 H :    0.100504
   5 H :    0.096699

-------------------------------
LOEWDIN REDUCED ORBITAL CHARGES
-------------------------------
  0 C s       :     2.859068  s :     2.859068
      pz      :     1.100076  p :     3.053687
      px      :     1.095179
      py      :     0.858432
      dz2     :     0.052767  d :     0.451572
      dxz     :     0.025237
      dyz     :     0.116375
      dx2y2   :     0.097510
      dxy     :     0.159683
      f0      :     0.008302  f :     0.067164
      f+1     :     0.001340
      f-1     :     0.008452
      f+2     :     0.012315
      f-2     :     0.002670
      f+3     :     0.021758
      f-3     :     0.012325
  1 O s       :     3.356182  s :     3.356182
      pz      :     1.447818  p :     4.622738
      px      :     1.775643
      py      :     1.399277
      dz2     :     0.016798  d :     0.078996
      dxz     :     0.001266
      dyz     :     0.026881
      dx2y2   :     0.016416
      dxy     :     0.017635
      f0      :     0.001031  f :     0.005225
      f+1     :     0.000150
      f-1     :     0.000977
      f+2     :     0.000797
      f-2     :     0.000033
      f+3     :     0.001279
      f-3     :     0.000958
  2 H s       :     0.662375  s :     0.662375
      pz      :     0.070041  p :     0.137634
      px      :     0.040458
      py      :     0.027136
  3 H s       :     0.844194  s :     0.844194
      pz      :     0.017011  p :     0.058369
      px      :     0.030883
      py      :     0.010475
  4 H s       :     0.840546  s :     0.840546
      pz      :     0.018141  p :     0.058950
      px      :     0.028436
      py      :     0.012373
  5 H s       :     0.846091  s :     0.846091
      pz      :     0.032651  p :     0.057210
      px      :     0.013058
      py      :     0.011501


                      *****************************
                      * MAYER POPULATION ANALYSIS *
                      *****************************

  NA   - Mulliken gross atomic population
  ZA   - Total nuclear charge
  QA   - Mulliken gross atomic charge
  VA   - Mayer's total valence
  BVA  - Mayer's bonded valence
  FA   - Mayer's free valence

  ATOM       NA         ZA         QA         VA         BVA        FA
  0 C      6.1531     6.0000    -0.1531     3.9661     3.9661     0.0000
  1 O      8.4699     8.0000    -0.4699     1.8774     1.8774    -0.0000
  2 H      0.6745     1.0000     0.3255     0.9011     0.9011     0.0000
  3 H      0.9044     1.0000     0.0956     0.9532     0.9532     0.0000
  4 H      0.8910     1.0000     0.1090     0.9542     0.9542     0.0000
  5 H      0.9070     1.0000     0.0930     0.9620     0.9620     0.0000

  Mayer bond orders larger than 0.1
B(  0-C ,  1-O ) :   1.0165 B(  0-C ,  3-H ) :   0.9785 B(  0-C ,  4-H ) :   0.9691 
B(  0-C ,  5-H ) :   0.9899 B(  1-O ,  2-H ) :   0.8868 


------------------
HIRSHFELD ANALYSIS
------------------

Total integrated alpha density =      8.998898512
Total integrated beta density  =      8.998898512

  ATOM     CHARGE      SPIN    
   0 C    0.004290    0.000000
   1 O   -0.248555    0.000000
   2 H    0.171823    0.000000
   3 H    0.018025    0.000000
   4 H    0.033074    0.000000
   5 H    0.023546    0.000000

  TOTAL   0.002203    0.000000

-------
TIMINGS
-------

Total SCF time: 0 days 0 hours 0 min 27 sec 

Total time                  ....      27.443 sec
Sum of individual times     ....      24.594 sec  ( 89.6%)

Fock matrix formation       ....      16.564 sec  ( 60.4%)
  XC integration            ....       3.394 sec  ( 20.5% of F)
    Basis function eval.    ....       0.040 sec  (  1.2% of XC)
    Density eval.           ....       0.050 sec  (  1.5% of XC)
    XC-Functional eval.     ....       0.081 sec  (  2.4% of XC)
    XC-Potential eval.      ....       0.034 sec  (  1.0% of XC)
Diagonalization             ....       1.701 sec  (  6.2%)
Density matrix formation    ....       1.410 sec  (  5.1%)
Population analysis         ....       0.024 sec  (  0.1%)
Initial guess               ....       0.706 sec  (  2.6%)
Orbital Transformation      ....       0.000 sec  (  0.0%)
Orbital Orthonormalization  ....       0.000 sec  (  0.0%)
DIIS solution               ....       0.338 sec  (  1.2%)
SOSCF solution              ....       0.549 sec  (  2.0%)
Grid generation             ....       3.302 sec  ( 12.0%)


-------------------------------------------------------------------------------
                          DFT DISPERSION CORRECTION                            
                                                                               
                              DFTD3 V3.1  Rev 1                                
                              USING zero damping                               
-------------------------------------------------------------------------------
The omegaB97X-D3 functional is recognized. Fit by Chai et al.
Active option DFTDOPT                   ...         3   

molecular C6(AA) [au] = 208.779141 


            DFT-D V3
 parameters
 s6 scaling factor         :     1.0000 
 rs6 scaling factor        :     1.2810 
 s8 scaling factor         :     1.0000 
 rs8 scaling factor        :     1.0940 
 Damping factor alpha6     :    14.0000 
 Damping factor alpha8     :    16.0000 
 ad hoc parameters k1-k3   :    16.0000     1.3333    -4.0000 

 Edisp/kcal,au: -0.146077700532  -0.000232789609 
 E6   /kcal   :  -0.029973616 
 E8   /kcal   :  -0.116104085 
 % E8         :  79.481046333 

-------------------------   ----------------
Dispersion correction           -0.000232790
-------------------------   ----------------


-------------------------   --------------------
FINAL SINGLE POINT ENERGY      -115.729272905805
-------------------------   --------------------


                            ***************************************
                            *     ORCA property calculations      *
                            ***************************************

                                    ---------------------
                                    Active property flags
                                    ---------------------
   (+) Dipole Moment


------------------------------------------------------------------------------
                       ORCA ELECTRIC PROPERTIES CALCULATION
------------------------------------------------------------------------------

Dipole Moment Calculation                       ... on
Quadrupole Moment Calculation                   ... off
Polarizability Calculation                      ... off
GBWName                                         ... 145_charges.gbw
Electron density file                           ... 145_charges.scfp.tmp
The origin for moment calculation is the CENTER OF MASS  = (10.266415,  9.416645 -15.053228)

-------------
DIPOLE MOMENT
-------------
                                X             Y             Z
Electronic contribution:      0.17714      -1.80999       0.23979
Nuclear contribution   :     -0.26165       2.05308      -0.87323
                        -----------------------------------------
Total Dipole Moment    :     -0.08451       0.24309      -0.63344
                        -----------------------------------------
Magnitude (a.u.)       :      0.68373
Magnitude (Debye)      :      1.73790



--------------------
Rotational spectrum 
--------------------
 
Rotational constants in cm-1:     4.188352     0.877688     0.843268 
Rotational constants in MHz : 125563.645965 26312.424576 25280.549590 

 Dipole components along the rotational axes: 
x,y,z [a.u.] :     0.223552    -0.638432     0.099573 
x,y,z [Debye]:     0.568223    -1.622764     0.253093 

 
------------------------------------------------------------------------------
                      ORCA CHELPG CHARGES GENERATION
------------------------------------------------------------------------------

GBW file                           ... 145_charges.gbw

Reading the GBW file               ... done

Grid spacing                       ...     0.300000
Point Cut-Off                      ...     2.800000
Van-der-Waals Radii                ...        COSMO
Total charge                       ...            0


Number of points X direction       ...           24
Number of points Y direction       ...           26
Number of points Z direction       ...           23
Maximum number of possible points  ...        14352
Final number of points             ...         5890


CHELPG Charges            
--------------------------------
  0   C   :       0.137812
  1   O   :      -0.591452
  2   H   :       0.395963
  3   H   :       0.024969
  4   H   :       0.037409
  5   H   :      -0.004701
--------------------------------
Total charge:     0.000000
--------------------------------

CHELPG charges calculated...

Timings for individual parts in CHELPG calculation:
Grid generation                 ...        0.001 sec (=   0.000 min)
Potential calculation           ...        0.670 sec (=   0.011 min)
Fit to the potential            ...        0.001 sec (=   0.000 min)
------------------------------------------------------------------------------


Timings for individual modules:

Sum of individual times         ...       37.702 sec (=   0.628 min)
GTO integral calculation        ...        5.247 sec (=   0.087 min)  13.9 %
SCF iterations                  ...       31.615 sec (=   0.527 min)  83.9 %
CHELPG charge generation        ...        0.839 sec (=   0.014 min)   2.2 %
                             ****ORCA TERMINATED NORMALLY****
TOTAL RUN TIME: 0 days 0 hours 0 minutes 40 seconds 445 msec
