
                                 *****************
                                 * O   R   C   A *
                                 *****************

           --- An Ab Initio, DFT and Semiempirical electronic structure package ---

                  #######################################################
                  #                        -***-                        #
                  #          Department of theory and spectroscopy      #
                  #               Directorship: Frank Neese             #
                  #        Max Planck Institute fuer Kohlenforschung    #
                  #                Kaiser Wilhelm Platz 1               #
                  #                 D-45470 Muelheim/Ruhr               #
                  #                      Germany                        #
                  #                                                     #
                  #                  All rights reserved                #
                  #                        -***-                        #
                  #######################################################


                         Program Version 4.1.2  - RELEASE  -


 With contributions from (in alphabetic order):
   Daniel Aravena         : Magnetic Properties
   Michael Atanasov       : Ab Initio Ligand Field Theory
   Alexander A. Auer      : GIAO ZORA
   Ute Becker             : Parallelization
   Giovanni Bistoni       : ED, Open-shell LED
   Martin Brehm           : Molecular dynamics
   Dmytro Bykov           : SCF Hessian
   Vijay G. Chilkuri      : MRCI spin determinant printing
   Dipayan Datta          : RHF DLPNO-CCSD density
   Achintya Kumar Dutta   : EOM-CC, STEOM-CC
   Dmitry Ganyushin       : Spin-Orbit,Spin-Spin,Magnetic field MRCI
   Miquel Garcia          : C-PCM Hessian
   Yang Guo               : DLPNO-NEVPT2, CIM, IAO-localization
   Andreas Hansen         : Spin unrestricted coupled pair/coupled cluster methods
   Benjamin Helmich-Paris : CASSCF linear response (MC-RPA)
   Lee Huntington         : MR-EOM, pCC
   Robert Izsak           : Overlap fitted RIJCOSX, COSX-SCS-MP3, EOM
   Christian Kollmar      : KDIIS, OOCD, Brueckner-CCSD(T), CCSD density
   Simone Kossmann        : Meta GGA functionals, TD-DFT gradient, OOMP2, MP2 Hessian
   Martin Krupicka        : AUTO-CI
   Lucas Lang             : DCDCAS
   Dagmar Lenk            : GEPOL surface, SMD
   Dimitrios Liakos       : Extrapolation schemes; parallel MDCI
   Dimitrios Manganas     : ROCIS; embedding schemes
   Dimitrios Pantazis     : SARC Basis sets
   Taras Petrenko         : DFT Hessian,TD-DFT gradient, ASA, ECA, R-Raman, ABS, FL, XAS/XES, NRVS
   Peter Pinski           : DLPNO-MP2, DLPNO-MP2 Gradient
   Christoph Reimann      : Effective Core Potentials
   Marius Retegan         : Local ZFS, SOC
   Christoph Riplinger    : Optimizer, TS searches, QM/MM, DLPNO-CCSD(T), (RO)-DLPNO pert. Triples
   Tobias Risthaus        : Range-separated hybrids, TD-DFT gradient, RPA, STAB
   Michael Roemelt        : Restricted open shell CIS
   Masaaki Saitow         : Open-shell DLPNO
   Barbara Sandhoefer     : DKH picture change effects
   Avijit Sen             : IP-ROCIS
   Kantharuban Sivalingam : CASSCF convergence, NEVPT2, FIC-MRCI
   Bernardo de Souza      : ESD, SOC TD-DFT
   Georgi Stoychev        : AutoAux, RI-MP2 NMR
   Willem Van den Heuvel  : Paramagnetic NMR
   Boris Wezisla          : Elementary symmetry handling
   Frank Wennmohs         : Technical directorship


 We gratefully acknowledge several colleagues who have allowed us to
 interface, adapt or use parts of their codes:
   Stefan Grimme, W. Hujo, H. Kruse,             : VdW corrections, initial TS optimization,
                  C. Bannwarth                     DFT functionals, gCP, sTDA/sTD-DF
   Ed Valeev                                     : LibInt (2-el integral package), F12 methods
   Garnet Chan, S. Sharma, J. Yang, R. Olivares  : DMRG
   Ulf Ekstrom                                   : XCFun DFT Library
   Mihaly Kallay                                 : mrcc  (arbitrary order and MRCC methods)
   Andreas Klamt, Michael Diedenhofen            : otool_cosmo (COSMO solvation model)
   Jiri Pittner, Ondrej Demel                    : Mk-CCSD
   Frank Weinhold                                : gennbo (NPA and NBO analysis)
   Christopher J. Cramer and Donald G. Truhlar   : smd solvation model
   Lars Goerigk                                  : TD-DFT with DH, B97 family of functionals
   V. Asgeirsson, H. Jonsson                     : NEB implementation
   FAccTs GmbH                                   : IRC, NEB, NEB-TS, Multilevel


 Your calculation uses the libint2 library for the computation of 2-el integrals
 For citations please refer to: http://libint.valeyev.net

 This ORCA versions uses:
   CBLAS   interface :  Fast vector & matrix operations
   LAPACKE interface :  Fast linear algebra routines
   SCALAPACK package :  Parallel linear algebra routines


Your calculation utilizes the atom-pairwise dispersion correction
with the zero-damping scheme (D30)
Cite in your paper:
S.Grimme, J.Antony, S.Ehrlich and H.Krieg, J.Chem.Phys., 132, (2010), 154104 
   

XCFun DFT library Copyright 2009-2010 Ulf Ekstrom and contributors.
See http://admol.org/xcfun for more information. This is free soft-
ware; see the source code for copying conditions. There is ABSOLUTELY
NO WARRANTY; not even for MERCHANTABILITY or FITNESS FOR A PARTICULAR
PURPOSE. For details see the documentation. Scientific users of this 
library should cite U. Ekstrom, L. Visscher, R. Bast, A. J. Thorvald-
sen and K. Ruud; J.Chem.Theor.Comp. 2010, DOI: 10.1021/ct100117s
XCFun Version 0.99 
----- Orbital basis set information -----
Your calculation utilizes the basis: def2-TZVP
   F. Weigend and R. Ahlrichs, Phys. Chem. Chem. Phys. 7, 3297 (2005).

================================================================================
                                        WARNINGS
                       Please study these warnings very carefully!
================================================================================


INFO   : the flag for use of LIBINT has been found!

================================================================================
                                       INPUT FILE
================================================================================
NAME = 0.in
|  1> #Run DFT-D3 single point of the dimer
|  2> ! wB97X-D3 def2-TZVP TIGHTSCF  CHELPG PAL8
|  3> 
|  4> %base "0_charges"
|  5> 
|  6> %scf
|  7> MaxIter 1000
|  8> end
|  9> %output
| 10>   Print[ P_Mayer ] 1
| 11>   Print[ P_NatPop ] 1
| 12>   Print[ P_Hirshfeld ] 1
| 13>   Print[ P_Mulliken ] 1
| 14>   Print [ P_Loewdin ] 1
| 15> end
| 16> 
| 17> * xyz 0 1
| 18>   C                      0.915985             9.204824             -0.976280           
| 19>   O                      1.585243             10.370668            -1.041298           
| 20>   H                      2.521978             10.203700            -0.924737           
| 21>   H                      -0.199026            9.380719             -0.811275           
| 22>   H                      1.204338             8.543475             -1.726995           
| 23>   H                      1.275053             8.672851             -0.078542           
| 24> *
| 25> 
| 26>                          ****END OF INPUT****
================================================================================

                       ****************************
                       * Single Point Calculation *
                       ****************************

---------------------------------
CARTESIAN COORDINATES (ANGSTROEM)
---------------------------------
  C      0.915985    9.204824   -0.976280
  O      1.585243   10.370668   -1.041298
  H      2.521978   10.203700   -0.924737
  H     -0.199026    9.380719   -0.811275
  H      1.204338    8.543475   -1.726995
  H      1.275053    8.672851   -0.078542

----------------------------
CARTESIAN COORDINATES (A.U.)
----------------------------
  NO LB      ZA    FRAG     MASS         X           Y           Z
   0 C     6.0000    0    12.011    1.730961   17.394596   -1.844902
   1 O     8.0000    0    15.999    2.995675   19.597722   -1.967768
   2 H     1.0000    0     1.008    4.765848   19.282199   -1.747500
   3 H     1.0000    0     1.008   -0.376105   17.726990   -1.533088
   4 H     1.0000    0     1.008    2.275869   16.144828   -3.263548
   5 H     1.0000    0     1.008    2.409501   16.389313   -0.148423

--------------------------------
INTERNAL COORDINATES (ANGSTROEM)
--------------------------------
 C      0   0   0     0.000000000000     0.00000000     0.00000000
 O      1   0   0     1.345855060259     0.00000000     0.00000000
 H      2   1   0     0.958612142616   109.21843029     0.00000000
 H      1   2   3     1.140795876207   111.06690685   163.76922185
 H      1   2   3     1.041202652530   112.18966493   298.55273429
 H      1   2   3     1.103566317897   107.16204454    48.48993869

---------------------------
INTERNAL COORDINATES (A.U.)
---------------------------
 C      0   0   0     0.000000000000     0.00000000     0.00000000
 O      1   0   0     2.543297479841     0.00000000     0.00000000
 H      2   1   0     1.811514418195   109.21843029     0.00000000
 H      1   2   3     2.155791780738   111.06690685   163.76922185
 H      1   2   3     1.967587863194   112.18966493   298.55273429
 H      1   2   3     2.085438111445   107.16204454    48.48993869

---------------------
BASIS SET INFORMATION
---------------------
There are 3 groups of distinct atoms

 Group   1 Type C   : 11s6p2d1f contracted to 5s3p2d1f pattern {62111/411/11/1}
 Group   2 Type O   : 11s6p2d1f contracted to 5s3p2d1f pattern {62111/411/11/1}
 Group   3 Type H   : 5s1p contracted to 3s1p pattern {311/1}

Atom   0C    basis set group =>   1
Atom   1O    basis set group =>   2
Atom   2H    basis set group =>   3
Atom   3H    basis set group =>   3
Atom   4H    basis set group =>   3
Atom   5H    basis set group =>   3


           ************************************************************
           *        Program running with 8 parallel MPI-processes     *
           *              working on a common directory               *
           ************************************************************
------------------------------------------------------------------------------
                           ORCA GTO INTEGRAL CALCULATION
------------------------------------------------------------------------------

                         BASIS SET STATISTICS AND STARTUP INFO

 # of primitive gaussian shells          ...   64
 # of primitive gaussian functions       ...  124
 # of contracted shells                  ...   38
 # of contracted basis functions         ...   86
 Highest angular momentum                ...    3
 Maximum contraction depth               ...    6
 Integral package used                   ... LIBINT
 Integral threshhold            Thresh   ...  2.500e-11
 Primitive cut-off              TCut     ...  2.500e-12


------------------------------ INTEGRAL EVALUATION ----------------------------


 * One electron integrals 
 Pre-screening matrix                    ... done
 Shell pair data                         ... done (   0.000 sec)



           ************************************************************
           *        Program running with 8 parallel MPI-processes     *
           *              working on a common directory               *
           ************************************************************
-------------------------------------------------------------------------------
                                 ORCA SCF
-------------------------------------------------------------------------------

------------
SCF SETTINGS
------------
Hamiltonian:
 Density Functional     Method          .... DFT(GTOs)
 Exchange Functional    Exchange        .... WB97X-D3
 Correlation Functional Correlation     .... WB97X-D3
 Gradients option       PostSCFGGA      .... off
 Hybrid DFT is turned on
   Fraction HF Exchange ScalHFX         ....  0.195728
   Scaling of DF-GGA-X  ScalDFX         ....  0.000000
   Scaling of DF-GGA-C  ScalDFC         ....  1.000000
   Scaling of DF-LDA-C  ScalLDAC        ....  1.000000
   Perturbative correction              ....  0.000000
   Density functional embedding theory  .... OFF
 Long-range corrected/Screened/Range-Separated Hybrid DFT is turned on
   Amount of maximum screened exact exchange              ....  0.804272
   Range separation parameter mu (erf(mu*r12)/r12)        ....  0.250000


General Settings:
 Integral files         IntName         .... 0_charges
 Hartree-Fock type      HFTyp           .... RHF
 Total Charge           Charge          ....    0
 Multiplicity           Mult            ....    1
 Number of Electrons    NEL             ....   18
 Basis Dimension        Dim             ....   86
 Nuclear Repulsion      ENuc            ....     41.5733680299 Eh

Convergence Acceleration:
 DIIS                   CNVDIIS         .... on
   Start iteration      DIISMaxIt       ....    12
   Startup error        DIISStart       ....  0.200000
   # of expansion vecs  DIISMaxEq       ....     5
   Bias factor          DIISBfac        ....   1.050
   Max. coefficient     DIISMaxC        ....  10.000
 Newton-Raphson         CNVNR           .... off
 SOSCF                  CNVSOSCF        .... on
   Start iteration      SOSCFMaxIt      ....   150
   Startup grad/error   SOSCFStart      ....  0.003300
 Level Shifting         CNVShift        .... on
   Level shift para.    LevelShift      ....    0.2500
   Turn off err/grad.   ShiftErr        ....    0.0010
 Zerner damping         CNVZerner       .... off
 Static damping         CNVDamp         .... on
   Fraction old density DampFac         ....    0.7000
   Max. Damping (<1)    DampMax         ....    0.9800
   Min. Damping (>=0)   DampMin         ....    0.0000
   Turn off err/grad.   DampErr         ....    0.1000
 Fernandez-Rico         CNVRico         .... off

SCF Procedure:
 Maximum # iterations   MaxIter         ....  1000
 SCF integral mode      SCFMode         .... Direct
   Integral package                     .... LIBINT
 Reset frequency        DirectResetFreq ....    20
 Integral Threshold     Thresh          ....  2.500e-11 Eh
 Primitive CutOff       TCut            ....  2.500e-12 Eh

Convergence Tolerance:
 Convergence Check Mode ConvCheckMode   .... Total+1el-Energy
 Convergence forced     ConvForced      .... 0
 Energy Change          TolE            ....  1.000e-08 Eh
 1-El. energy change                    ....  1.000e-05 Eh
 Orbital Gradient       TolG            ....  1.000e-05
 Orbital Rotation angle TolX            ....  1.000e-05
 DIIS Error             TolErr          ....  5.000e-07


Diagonalization of the overlap matrix:
Smallest eigenvalue                        ... 1.604e-03
Time for diagonalization                   ...    0.035 sec
Threshold for overlap eigenvalues          ... 1.000e-08
Number of eigenvalues below threshold      ... 0
Time for construction of square roots      ...    0.088 sec
Total time needed                          ...    0.136 sec

-------------------
DFT GRID GENERATION
-------------------

General Integration Accuracy     IntAcc      ...  4.340
Radial Grid Type                 RadialGrid  ... Gauss-Chebyshev
Angular Grid (max. acc.)         AngularGrid ... Lebedev-110
Angular grid pruning method      GridPruning ... 3 (G Style)
Weight generation scheme         WeightScheme... Becke
Basis function cutoff            BFCut       ...    1.0000e-11
Integration weight cutoff        WCut        ...    1.0000e-14
Grids for H and He will be reduced by one unit

# of grid points (after initial pruning)     ...   6548 (   0.0 sec)
# of grid points (after weights+screening)   ...   6387 (   0.4 sec)
nearest neighbour list constructed           ...    0.0 sec
Grid point re-assignment to atoms done       ...    0.0 sec
Grid point division into batches done        ...    0.0 sec
Reduced shell lists constructed in    0.0 sec

Total number of grid points                  ...     6387
Total number of batches                      ...      103
Average number of points per batch           ...       62
Average number of grid points per atom       ...     1064
Average number of shells per batch           ...    32.36 (85.15%)
Average number of basis functions per batch  ...    74.50 (86.63%)
Average number of large shells per batch     ...    30.86 (95.36%)
Average number of large basis fcns per batch ...    71.00 (95.30%)
Maximum spatial batch extension              ...  11.72, 14.49, 23.40 au
Average spatial batch extension              ...   0.31,  0.40,  0.53 au

Time for grid setup =    3.597 sec

------------------------------
INITIAL GUESS: MODEL POTENTIAL
------------------------------
Loading Hartree-Fock densities                     ... done
Calculating cut-offs                               ... done
Setting up the integral package                    ... done
Initializing the effective Hamiltonian             ... done
Starting the Coulomb interaction                   ... done (   0.0 sec)
Reading the grid                                   ... done
Mapping shells                                     ... done
Starting the XC term evaluation                    ... done (   0.1 sec)
  promolecular density results
     # of electrons  =     18.004043266
     EX              =    -14.454825507
     EC              =     -0.578847692
     EX+EC           =    -15.033673199
Transforming the Hamiltonian                       ... done (   0.0 sec)
Diagonalizing the Hamiltonian                      ... done (   0.0 sec)
Back transforming the eigenvectors                 ... done (   0.0 sec)
Now organizing SCF variables                       ... done
                      ------------------
                      INITIAL GUESS DONE (   4.0 sec)
                      ------------------
--------------
SCF ITERATIONS
--------------
ITER       Energy         Delta-E        Max-DP      RMS-DP      [F,P]     Damp
               ***  Starting incremental Fock matrix formation  ***
  0   -115.6306408304   0.000000000000 0.03889572  0.00156014  0.2501146 0.7000
  1   -115.6709685415  -0.040327711052 0.02538988  0.00110930  0.1284618 0.7000
                               ***Turning on DIIS***
  2   -115.6895183456  -0.018549804137 0.03954805  0.00201374  0.0550781 0.0000
  3   -115.7194390856  -0.029920740025 0.01870395  0.00071476  0.0635686 0.0000
  4   -115.7244613934  -0.005022307711 0.00408767  0.00014002  0.0064306 0.0000
                      *** Initiating the SOSCF procedure ***
                           *** Shutting down DIIS ***
                      *** Re-Reading the Fockian *** 
                      *** Removing any level shift *** 
ITER      Energy       Delta-E        Grad      Rot      Max-DP    RMS-DP
  5   -115.72455765  -0.0000962523  0.000500  0.000500  0.000825  0.000050
               *** Restarting incremental Fock matrix formation ***
  6   -115.72456639  -0.0000087406  0.000133  0.000183  0.000555  0.000031
  7   -115.72456717  -0.0000007827  0.000054  0.000113  0.000286  0.000015
  8   -115.72456723  -0.0000000592  0.000034  0.000023  0.000043  0.000002
  9   -115.72456725  -0.0000000194  0.000008  0.000009  0.000018  0.000001
 10   -115.72456725  -0.0000000010  0.000003  0.000004  0.000006  0.000000
                  ***Gradient check signals convergence***
              ***Rediagonalizing the Fockian in SOSCF/NRSCF***

               *****************************************************
               *                     SUCCESS                       *
               *           SCF CONVERGED AFTER  11 CYCLES          *
               *****************************************************

Setting up the final grid:

General Integration Accuracy     IntAcc      ...  4.670
Radial Grid Type                 RadialGrid  ... Gauss-Chebyshev
Angular Grid (max. acc.)         AngularGrid ... Lebedev-302
Angular grid pruning method      GridPruning ... 3 (G Style)
Weight generation scheme         WeightScheme... Becke
Basis function cutoff            BFCut       ...    1.0000e-11
Integration weight cutoff        WCut        ...    1.0000e-14
Grids for H and He will be reduced by one unit

# of grid points (after initial pruning)     ...  26000 (   0.0 sec)
# of grid points (after weights+screening)   ...  25153 (   0.6 sec)
nearest neighbour list constructed           ...    0.0 sec
Grid point re-assignment to atoms done       ...    0.0 sec
Grid point division into batches done        ...    0.1 sec
Reduced shell lists constructed in    0.1 sec

Total number of grid points                  ...    25153
Total number of batches                      ...      396
Average number of points per batch           ...       63
Average number of grid points per atom       ...     4192
Average number of shells per batch           ...    31.51 (82.92%)
Average number of basis functions per batch  ...    71.71 (83.38%)
Average number of large shells per batch     ...    29.94 (95.02%)
Average number of large basis fcns per batch ...    69.04 (96.28%)
Maximum spatial batch extension              ...  11.85, 13.72, 16.05 au
Average spatial batch extension              ...   0.27,  0.28,  0.32 au

Final grid set up in    1.0 sec
Final integration                            ... done (   0.2 sec)
Change in XC energy                          ...    -0.000342501
Integrated number of electrons               ...    17.999996262
Previous integrated no of electrons          ...    18.002254712

----------------
TOTAL SCF ENERGY
----------------

Total Energy       :         -115.72490975 Eh           -3149.03489 eV

Components:
Nuclear Repulsion  :           41.57336803 Eh            1131.26886 eV
Electronic Energy  :         -157.29827778 Eh           -4280.30374 eV
One Electron Energy:         -239.46830131 Eh           -6516.26376 eV
Two Electron Energy:           82.17002353 Eh            2235.96001 eV

Virial components:
Potential Energy   :         -231.13298989 Eh           -6289.44840 eV
Kinetic Energy     :          115.40808014 Eh            3140.41352 eV
Virial Ratio       :            2.00274530


DFT components:
N(Alpha)           :        8.999998131192 electrons
N(Beta)            :        8.999998131192 electrons
N(Total)           :       17.999996262385 electrons
E(XC)              :      -10.684327654397 Eh       
DFET-embed. en.    :        0.000000000000 Eh       

---------------
SCF CONVERGENCE
---------------

  Last Energy change         ...   -2.4981e-10  Tolerance :   1.0000e-08
  Last MAX-Density change    ...    2.2811e-06  Tolerance :   1.0000e-07
  Last RMS-Density change    ...    1.2440e-07  Tolerance :   5.0000e-09
  Last Orbital Gradient      ...    8.4065e-07  Tolerance :   1.0000e-05
  Last Orbital Rotation      ...    2.0687e-06  Tolerance :   1.0000e-05

             **** THE GBW FILE WAS UPDATED (0_charges.gbw) ****
             **** DENSITY FILE WAS UPDATED (0_charges.scfp.tmp) ****
             **** ENERGY FILE WAS UPDATED (0_charges.en.tmp) ****
----------------
ORBITAL ENERGIES
----------------

  NO   OCC          E(Eh)            E(eV) 
   0   2.0000     -19.226322      -523.1748 
   1   2.0000     -10.307002      -280.4678 
   2   2.0000      -1.158435       -31.5226 
   3   2.0000      -0.792182       -21.5564 
   4   2.0000      -0.630247       -17.1499 
   5   2.0000      -0.552136       -15.0244 
   6   2.0000      -0.531028       -14.4500 
   7   2.0000      -0.427817       -11.6415 
   8   2.0000      -0.364186        -9.9100 
   9   0.0000       0.112975         3.0742 
  10   0.0000       0.159934         4.3520 
  11   0.0000       0.197356         5.3703 
  12   0.0000       0.209814         5.7093 
  13   0.0000       0.234027         6.3682 
  14   0.0000       0.298197         8.1143 
  15   0.0000       0.319195         8.6857 
  16   0.0000       0.424419        11.5490 
  17   0.0000       0.471934        12.8420 
  18   0.0000       0.479971        13.0607 
  19   0.0000       0.534869        14.5545 
  20   0.0000       0.538658        14.6576 
  21   0.0000       0.557850        15.1799 
  22   0.0000       0.607357        16.5270 
  23   0.0000       0.621922        16.9234 
  24   0.0000       0.668239        18.1837 
  25   0.0000       0.803112        21.8538 
  26   0.0000       0.834254        22.7012 
  27   0.0000       0.867363        23.6021 
  28   0.0000       0.976601        26.5747 
  29   0.0000       1.004177        27.3250 
  30   0.0000       1.135615        30.9017 
  31   0.0000       1.387329        37.7511 
  32   0.0000       1.490742        40.5652 
  33   0.0000       1.560592        42.4659 
  34   0.0000       1.581734        43.0412 
  35   0.0000       1.610540        43.8250 
  36   0.0000       1.644988        44.7624 
  37   0.0000       1.689578        45.9758 
  38   0.0000       1.749182        47.5977 
  39   0.0000       1.765631        48.0452 
  40   0.0000       1.956727        53.2453 
  41   0.0000       1.979497        53.8649 
  42   0.0000       2.051209        55.8162 
  43   0.0000       2.094519        56.9948 
  44   0.0000       2.175821        59.2071 
  45   0.0000       2.267263        61.6953 
  46   0.0000       2.301435        62.6252 
  47   0.0000       2.354135        64.0593 
  48   0.0000       2.400141        65.3112 
  49   0.0000       2.492032        67.8116 
  50   0.0000       2.509606        68.2899 
  51   0.0000       2.629853        71.5619 
  52   0.0000       2.647123        72.0319 
  53   0.0000       2.724501        74.1374 
  54   0.0000       2.865264        77.9678 
  55   0.0000       2.886269        78.5394 
  56   0.0000       2.930138        79.7331 
  57   0.0000       2.999250        81.6138 
  58   0.0000       3.130905        85.1963 
  59   0.0000       3.167895        86.2028 
  60   0.0000       3.309212        90.0482 
  61   0.0000       3.403583        92.6162 
  62   0.0000       3.491008        94.9952 
  63   0.0000       3.507845        95.4533 
  64   0.0000       3.647553        99.2550 
  65   0.0000       3.703659       100.7817 
  66   0.0000       3.732913       101.5777 
  67   0.0000       4.038968       109.9059 
  68   0.0000       4.147337       112.8548 
  69   0.0000       4.274926       116.3267 
  70   0.0000       4.427828       120.4873 
  71   0.0000       4.560934       124.1093 
  72   0.0000       5.384394       146.5168 
  73   0.0000       5.457162       148.4969 
  74   0.0000       5.599197       152.3619 
  75   0.0000       5.907908       160.7624 
  76   0.0000       5.955100       162.0465 
  77   0.0000       6.080308       165.4536 
  78   0.0000       6.383683       173.7088 
  79   0.0000       6.561980       178.5606 
  80   0.0000       6.754525       183.8000 
  81   0.0000       6.855186       186.5391 
  82   0.0000       7.047962       191.7848 
  83   0.0000       7.245225       197.1526 
  84   0.0000      22.578845       614.4016 
  85   0.0000      43.700015      1189.1379 

                    ********************************
                    * MULLIKEN POPULATION ANALYSIS *
                    ********************************

-----------------------
MULLIKEN ATOMIC CHARGES
-----------------------
   0 C :   -0.160729
   1 O :   -0.460601
   2 H :    0.317119
   3 H :    0.116510
   4 H :    0.102695
   5 H :    0.085007
Sum of atomic charges:    0.0000000

--------------------------------
MULLIKEN REDUCED ORBITAL CHARGES
--------------------------------
  0 C s       :     3.216452  s :     3.216452
      pz      :     1.055723  p :     2.827671
      px      :     1.004918
      py      :     0.767031
      dz2     :     0.004187  d :     0.107615
      dxz     :     0.012424
      dyz     :     0.037794
      dx2y2   :     0.040093
      dxy     :     0.013117
      f0      :     0.001325  f :     0.008990
      f+1     :     0.000405
      f-1     :     0.001170
      f+2     :     0.000463
      f-2     :     0.001679
      f+3     :     0.001406
      f-3     :     0.002542
  1 O s       :     3.778903  s :     3.778903
      pz      :     1.888878  p :     4.647012
      px      :     1.263584
      py      :     1.494551
      dz2     :     0.004791  d :     0.032805
      dxz     :     0.001678
      dyz     :     0.005516
      dx2y2   :     0.013148
      dxy     :     0.007672
      f0      :     0.000256  f :     0.001881
      f+1     :     0.000425
      f-1     :     0.000269
      f+2     :     0.000137
      f-2     :     0.000105
      f+3     :     0.000396
      f-3     :     0.000292
  2 H s       :     0.635523  s :     0.635523
      pz      :     0.017517  p :     0.047359
      px      :     0.018566
      py      :     0.011276
  3 H s       :     0.864956  s :     0.864956
      pz      :     0.003967  p :     0.018535
      px      :     0.012219
      py      :     0.002349
  4 H s       :     0.876546  s :     0.876546
      pz      :     0.008976  p :     0.020759
      px      :     0.004363
      py      :     0.007420
  5 H s       :     0.895569  s :     0.895569
      pz      :     0.009668  p :     0.019424
      px      :     0.004282
      py      :     0.005474


                     *******************************
                     * LOEWDIN POPULATION ANALYSIS *
                     *******************************

----------------------
LOEWDIN ATOMIC CHARGES
----------------------
   0 C :   -0.438978
   1 O :   -0.028506
   2 H :    0.174375
   3 H :    0.119902
   4 H :    0.080602
   5 H :    0.092604

-------------------------------
LOEWDIN REDUCED ORBITAL CHARGES
-------------------------------
  0 C s       :     2.848411  s :     2.848411
      pz      :     1.102621  p :     3.054281
      px      :     1.037349
      py      :     0.914311
      dz2     :     0.043665  d :     0.465023
      dxz     :     0.028485
      dyz     :     0.168597
      dx2y2   :     0.147922
      dxy     :     0.076354
      f0      :     0.008656  f :     0.071263
      f+1     :     0.004988
      f-1     :     0.007421
      f+2     :     0.002931
      f-2     :     0.017543
      f+3     :     0.012144
      f-3     :     0.017580
  1 O s       :     3.325071  s :     3.325071
      pz      :     1.767563  p :     4.613375
      px      :     1.289294
      py      :     1.556518
      dz2     :     0.008886  d :     0.084272
      dxz     :     0.005214
      dyz     :     0.015707
      dx2y2   :     0.036072
      dxy     :     0.018392
      f0      :     0.000632  f :     0.005789
      f+1     :     0.000703
      f-1     :     0.000463
      f+2     :     0.000432
      f-2     :     0.000624
      f+3     :     0.001152
      f-3     :     0.001782
  2 H s       :     0.669188  s :     0.669188
      pz      :     0.047174  p :     0.156437
      px      :     0.073319
      py      :     0.035943
  3 H s       :     0.828561  s :     0.828561
      pz      :     0.011303  p :     0.051536
      px      :     0.032893
      py      :     0.007341
  4 H s       :     0.850198  s :     0.850198
      pz      :     0.029829  p :     0.069200
      px      :     0.016324
      py      :     0.023047
  5 H s       :     0.849408  s :     0.849408
      pz      :     0.028693  p :     0.057988
      px      :     0.013972
      py      :     0.015323


                      *****************************
                      * MAYER POPULATION ANALYSIS *
                      *****************************

  NA   - Mulliken gross atomic population
  ZA   - Total nuclear charge
  QA   - Mulliken gross atomic charge
  VA   - Mayer's total valence
  BVA  - Mayer's bonded valence
  FA   - Mayer's free valence

  ATOM       NA         ZA         QA         VA         BVA        FA
  0 C      6.1607     6.0000    -0.1607     3.9479     3.9479     0.0000
  1 O      8.4606     8.0000    -0.4606     1.8767     1.8767     0.0000
  2 H      0.6829     1.0000     0.3171     0.9095     0.9095    -0.0000
  3 H      0.8835     1.0000     0.1165     0.9623     0.9623     0.0000
  4 H      0.8973     1.0000     0.1027     0.9513     0.9513    -0.0000
  5 H      0.9150     1.0000     0.0850     0.9599     0.9599    -0.0000

  Mayer bond orders larger than 0.1
B(  0-C ,  1-O ) :   1.0003 B(  0-C ,  3-H ) :   0.9677 B(  0-C ,  4-H ) :   0.9744 
B(  0-C ,  5-H ) :   0.9934 B(  1-O ,  2-H ) :   0.8947 


------------------
HIRSHFELD ANALYSIS
------------------

Total integrated alpha density =      9.001127356
Total integrated beta density  =      9.001127356

  ATOM     CHARGE      SPIN    
   0 C    0.001122    0.000000
   1 O   -0.243464    0.000000
   2 H    0.166953    0.000000
   3 H    0.042875    0.000000
   4 H    0.019967    0.000000
   5 H    0.010293    0.000000

  TOTAL  -0.002255    0.000000

-------
TIMINGS
-------

Total SCF time: 0 days 0 hours 0 min 31 sec 

Total time                  ....      31.690 sec
Sum of individual times     ....      27.381 sec  ( 86.4%)

Fock matrix formation       ....      17.348 sec  ( 54.7%)
  XC integration            ....       4.059 sec  ( 23.4% of F)
    Basis function eval.    ....       0.060 sec  (  1.5% of XC)
    Density eval.           ....       0.057 sec  (  1.4% of XC)
    XC-Functional eval.     ....       0.077 sec  (  1.9% of XC)
    XC-Potential eval.      ....       0.049 sec  (  1.2% of XC)
Diagonalization             ....       2.462 sec  (  7.8%)
Density matrix formation    ....       1.465 sec  (  4.6%)
Population analysis         ....       0.108 sec  (  0.3%)
Initial guess               ....       0.422 sec  (  1.3%)
Orbital Transformation      ....       0.000 sec  (  0.0%)
Orbital Orthonormalization  ....       0.000 sec  (  0.0%)
DIIS solution               ....       0.285 sec  (  0.9%)
SOSCF solution              ....       0.719 sec  (  2.3%)
Grid generation             ....       4.572 sec  ( 14.4%)


-------------------------------------------------------------------------------
                          DFT DISPERSION CORRECTION                            
                                                                               
                              DFTD3 V3.1  Rev 1                                
                              USING zero damping                               
-------------------------------------------------------------------------------
The omegaB97X-D3 functional is recognized. Fit by Chai et al.
Active option DFTDOPT                   ...         3   

molecular C6(AA) [au] = 208.694348 


            DFT-D V3
 parameters
 s6 scaling factor         :     1.0000 
 rs6 scaling factor        :     1.2810 
 s8 scaling factor         :     1.0000 
 rs8 scaling factor        :     1.0940 
 Damping factor alpha6     :    14.0000 
 Damping factor alpha8     :    16.0000 
 ad hoc parameters k1-k3   :    16.0000     1.3333    -4.0000 

 Edisp/kcal,au: -0.123265715138  -0.000196436400 
 E6   /kcal   :  -0.026012581 
 E8   /kcal   :  -0.097253134 
 % E8         :  78.897148009 

-------------------------   ----------------
Dispersion correction           -0.000196436
-------------------------   ----------------


-------------------------   --------------------
FINAL SINGLE POINT ENERGY      -115.725106186427
-------------------------   --------------------


                            ***************************************
                            *     ORCA property calculations      *
                            ***************************************

                                    ---------------------
                                    Active property flags
                                    ---------------------
   (+) Dipole Moment


------------------------------------------------------------------------------
                       ORCA ELECTRIC PROPERTIES CALCULATION
------------------------------------------------------------------------------

Dipole Moment Calculation                       ... on
Quadrupole Moment Calculation                   ... off
Polarizability Calculation                      ... off
GBWName                                         ... 0_charges.gbw
Electron density file                           ... 0_charges.scfp.tmp
The origin for moment calculation is the CENTER OF MASS  = ( 2.430126, 18.493544 -1.884637)

-------------
DIPOLE MOMENT
-------------
                                X             Y             Z
Electronic contribution:      0.69504       1.66176      -0.31088
Nuclear contribution   :     -0.31599      -2.19110       0.41935
                        -----------------------------------------
Total Dipole Moment    :      0.37906      -0.52934       0.10847
                        -----------------------------------------
Magnitude (a.u.)       :      0.66004
Magnitude (Debye)      :      1.67769



--------------------
Rotational spectrum 
--------------------
 
Rotational constants in cm-1:     4.276452     0.913242     0.861591 
Rotational constants in MHz : 128204.791246 27378.305741 25829.847169 

 Dipole components along the rotational axes: 
x,y,z [a.u.] :    -0.241698     0.608620     0.082576 
x,y,z [Debye]:    -0.614347     1.546988     0.209890 

 
------------------------------------------------------------------------------
                      ORCA CHELPG CHARGES GENERATION
------------------------------------------------------------------------------

GBW file                           ... 0_charges.gbw

Reading the GBW file               ... done

Grid spacing                       ...     0.300000
Point Cut-Off                      ...     2.800000
Van-der-Waals Radii                ...        COSMO
Total charge                       ...            0


Number of points X direction       ...           27
Number of points Y direction       ...           24
Number of points Z direction       ...           24
Maximum number of possible points  ...        15552
Final number of points             ...         5855


CHELPG Charges            
--------------------------------
  0   C   :       0.088472
  1   O   :      -0.600789
  2   H   :       0.417539
  3   H   :       0.073686
  4   H   :       0.021988
  5   H   :      -0.000895
--------------------------------
Total charge:     0.000000
--------------------------------

CHELPG charges calculated...

Timings for individual parts in CHELPG calculation:
Grid generation                 ...        0.001 sec (=   0.000 min)
Potential calculation           ...        0.665 sec (=   0.011 min)
Fit to the potential            ...        0.001 sec (=   0.000 min)
------------------------------------------------------------------------------


Timings for individual modules:

Sum of individual times         ...       40.957 sec (=   0.683 min)
GTO integral calculation        ...        4.146 sec (=   0.069 min)  10.1 %
SCF iterations                  ...       36.094 sec (=   0.602 min)  88.1 %
CHELPG charge generation        ...        0.717 sec (=   0.012 min)   1.8 %
                             ****ORCA TERMINATED NORMALLY****
TOTAL RUN TIME: 0 days 0 hours 0 minutes 43 seconds 151 msec
