LAMMPS data file via vdw_self_gen.py, on 2021-08-05 13:23:50.695980

4500 atoms
7 atom types
4000 bonds
6 bond types
6000 angles
8 angle types
5000 dihedrals
6 dihedral types

-36.0166018807418027  36.0166018807418027 xlo xhi
-36.0166018807418027  36.0166018807418027 ylo yhi
-36.0166018807418027  36.0166018807418027 zlo zhi

Masses

1  1.007940
2  1.007940
3  1.007940
4  12.011000
5  12.011000
6  14.006740
7  15.999400

Atoms

1         0    4    0.1147190000000000   20.8727359480184660 -4.5067087774900916  -12.5190451160747251 0 0 0
2         0    6   -0.2320900000000000   19.9502476121183392 -3.4765781660243782  -12.1291690787891646 0 0 0
3         0    5    0.1041980000000000   18.9229035776786851 -3.6826993501960019  -11.2572224658953797 0 0 0
4         0    7   -0.3860370000000000   18.1403841495677050 -2.8028916450174699  -10.9287092047667826 0 0 0
5         0    1    0.0061770000000000   21.5959538988978039 -4.0872538236817144  -13.2216257934004702 0 0 0
6         0    1    0.0061770000000000   20.3195739226518697 -5.3240421071964006  -12.9893376191443828 0 0 0
7         0    1    0.0061770000000000   21.3849862098148016 -4.8843859350153025  -11.6301449223109579 0 0 0
8         0    3    0.2812760000000000   20.0337452417809665 -2.5368372004460973  -12.4989556610967494 0 0 0
9         0    2    0.0994030000000000   18.8624788431803552 -4.7152048756743419  -10.8755957807467851 0 0 0
10        1    4    0.1147190000000000   11.3483032568962852  19.7942882603815278 -19.1226081383171049 0 0 0
11        1    6   -0.2320900000000000   12.4350907669829134  19.6805646226734403 -20.0554087457065648 0 0 0
12        1    5    0.1041980000000000   12.5847303334865668  20.5007808594872358 -21.1338640894290677 0 0 0
13        1    7   -0.3860370000000000   13.5111950898769688  20.3998802617128732 -21.9249401545045082 0 0 0
14        1    1    0.0061770000000000   11.4579783223954390  19.0249174502116638 -18.3553753135720186 0 0 0
15        1    1    0.0061770000000000   10.4029536636187832  19.6637645669086965 -19.6559698809761336 0 0 0
16        1    1    0.0061770000000000   11.3694583953657418  20.7878206073799170 -18.6669439460831654 0 0 0
17        1    3    0.2812760000000000   13.1461700602120040  18.9677971579956122 -19.9407098658621784 0 0 0
18        1    2    0.0994030000000000   11.7939257533906972  21.2631956169580292 -21.2271892692582576 0 0 0
19        2    4    0.1147190000000000  -4.4934064275178098  -12.8818934163955916 -4.5064204821484672  0 0 0
20        2    6   -0.2320900000000000  -3.6173247281159076  -12.1396115570413414 -3.6429069453427774  0 0 0
21        2    5    0.1041980000000000  -3.6094725335535434  -10.7781182071574353 -3.5759233304622642  0 0 0
22        2    7   -0.3860370000000000  -2.8618818244708466  -10.1509941821559639 -2.8396198569140410  0 0 0
23        2    1    0.0061770000000000  -4.3027288980746841  -13.9487749452654199 -4.3722111157769579  0 0 0
24        2    1    0.0061770000000000  -4.3046868099707805  -12.5920106533925757 -5.5435077139022120  0 0 0
25        2    1    0.0061770000000000  -5.5305255889913560  -12.6485357223062458 -4.2512500449624380  0 0 0
26        2    3    0.2812760000000000  -2.9576932683148129  -12.6152580853572278 -3.0383626786908464  0 0 0
27        2    2    0.0994030000000000  -4.3388818017320556  -10.2946088731535941 -4.2463997125417938  0 0 0
28        3    4    0.1147190000000000  -28.7280407827244488  19.4084192681227101 -27.3869238832162019 0 0 0
29        3    6   -0.2320900000000000  -27.5860662764516356  19.7292586346872270 -28.1975492337237199 0 0 0
30        3    5    0.1041980000000000  -27.3565867997136323  20.9718162760646436 -28.7090199376850137 0 0 0
31        3    7   -0.3860370000000000  -26.3833941132644263  21.2398454983322829 -29.3984947720715724 0 0 0
32        3    1    0.0061770000000000  -28.6782967812569716  18.3542261246229899 -27.1061951504221028 0 0 0
33        3    1    0.0061770000000000  -29.6394651775436202  19.6046340618894206 -27.9578900501959957 0 0 0
34        3    1    0.0061770000000000  -28.7215132076506805  20.0379978482087360 -26.4931833600437798 0 0 0
35        3    3    0.2812760000000000  -26.8940171479491816  19.0242295991420818 -28.4230023680494099 0 0 0
36        3    2    0.0994030000000000  -28.1288328786379935  21.7125820926389075 -28.4439544097847978 0 0 0
37        4    4    0.1147190000000000  -27.5543877149677243  27.1127044522606901 -20.5027979144504293 0 0 0
38        4    6   -0.2320900000000000  -27.6834846841576976  28.4430703530501852 -19.9759035478431315 0 0 0
39        4    5    0.1041980000000000  -28.8220475719132025  28.9080154764121104 -19.3879297505631598 0 0 0
40        4    7   -0.3860370000000000  -28.9270730229922783  30.0410465873652441 -18.9412426425804767 0 0 0
41        4    1    0.0061770000000000  -26.5512041991590024  26.9914941317131962 -20.9169683657170857 0 0 0
42        4    1    0.0061770000000000  -28.3057066349546886  26.9614406458836839 -21.2824364062849192 0 0 0
43        4    1    0.0061770000000000  -27.7207834197815330  26.3909516689380226 -19.6987025782585725 0 0 0
44        4    3    0.2812760000000000  -26.9123734768139755  29.0986762340831504 -20.0248472671940583 0 0 0
45        4    2    0.0994030000000000  -29.6391524404524915  28.1688136154863109 -19.3521809308171626 0 0 0
46        5    4    0.1147190000000000  -20.7708634233366389 -28.7461864450687941 -19.6265362626848905 0 0 0
47        5    6   -0.2320900000000000  -19.5709428696282544 -27.9588752428249308 -19.6935352672258510 0 0 0
48        5    5    0.1041980000000000  -19.2997881563389306 -27.0928696923723002 -20.7107481807529297 0 0 0
49        5    7   -0.3860370000000000  -18.2771433253552225 -26.4252271422389953 -20.7633807857976116 0 0 0
50        5    1    0.0061770000000000  -20.7458128488695692 -29.3536528434858575 -18.7193630077809168 0 0 0
51        5    1    0.0061770000000000  -20.8281303057744012 -29.3882144494238062 -20.5095524473609032 0 0 0
52        5    1    0.0061770000000000  -21.6368775199594197 -28.0791403073923469 -19.6106316985111633 0 0 0
53        5    3    0.2812760000000000  -18.8664268289139230 -28.0222435959597860 -18.9679536707136585 0 0 0
54        5    2    0.0994030000000000  -20.0870241255326327 -27.0498034464257771 -21.4813080828810712 0 0 0
55        6    4    0.1147190000000000   26.9557241777870118  4.0220765407226526  -20.3915569000729811 0 0 0
56        6    6   -0.2320900000000000   28.3501880590435640  4.3431739695400440  -20.2630109702355625 0 0 0
57        6    5    0.1041980000000000   29.1722762755471905  3.7556367160616464  -19.3480336243624649 0 0 0
58        6    7   -0.3860370000000000   30.3582548459388342  4.0324279662498776  -19.2423896439801645 0 0 0
59        6    1    0.0061770000000000   26.5251576481634430  4.6272965744592787  -21.1921363434961485 0 0 0
60        6    1    0.0061770000000000   26.4505838511039997  4.2329851967941767  -19.4452230130369692 0 0 0
61        6    1    0.0061770000000000   26.8526639262079314  2.9589455814169954  -20.6246128341538011 0 0 0
62        6    3    0.2812760000000000   28.7816587456165394  5.0358335236530039  -20.8637462211775073 0 0 0
63        6    2    0.0994030000000000   28.6697056357840765  3.0082258118441265  -18.7122998531933931 0 0 0
64        7    4    0.1147190000000000   19.9037029436911403 -4.1444016357832290  -2.8915390156696890  0 0 0
65        7    6   -0.2320900000000000   19.7596229828599590 -3.5608359413719497  -4.1964716484876288  0 0 0
66        7    5    0.1041980000000000   20.3072710453641250 -4.1002623368190019  -5.3222217836999093  0 0 0
67        7    7   -0.3860370000000000   20.1820171674013942 -3.5997867305471773  -6.4304432641730740  0 0 0
68        7    1    0.0061770000000000   19.3746327216971963 -3.5235493916122800  -2.1654305788593402  0 0 0
69        7    1    0.0061770000000000   20.9658946647375366 -4.1993126563773311  -2.6386940747319372  0 0 0
70        7    1    0.0061770000000000   19.4842870171993567 -5.1539384649472089  -2.9020076195197033  0 0 0
71        7    3    0.2812760000000000   19.2323056463074344 -2.7055983220097759  -4.3281230594138718  0 0 0
72        7    2    0.0994030000000000   20.8732752144508602 -5.0289164012738450  -5.1416708361866412  0 0 0
73        8    4    0.1147190000000000  -4.7401156179526645   11.5460715985852502  27.3001110852628841 0 0 0
74        8    6   -0.2320900000000000  -3.6042508370836726   11.6714217230288355  28.1708898613497887 0 0 0
75        8    5    0.1041980000000000  -3.2966474610785803   12.8189087128461043  28.8393705077939515 0 0 0
76        8    7   -0.3860370000000000  -2.3287999483465005   12.9206908039762567  29.5791210158867059 0 0 0
77        8    1    0.0061770000000000  -4.7625733544566797   10.5339503826117102  26.8905838393471193 0 0 0
78        8    1    0.0061770000000000  -4.6554546336555163   12.2783823269904921  26.4928003945121482 0 0 0
79        8    1    0.0061770000000000  -5.6520845592095457   11.7433160077361851  27.8698401557354138 0 0 0
80        8    3    0.2812760000000000  -2.9761867423650363   10.8906434452378313  28.3217136885621130 0 0 0
81        8    2    0.0994030000000000  -4.0004887265936047   13.6464206412127389  28.6517826167424587 0 0 0
82        9    4    0.1147190000000000   27.2081185601141620 -11.9226630661779271 -4.7826613100992059  0 0 0
83        9    6   -0.2320900000000000   27.9647563861874637 -11.6536522642438012 -3.5913219295707939  0 0 0
84        9    5    0.1041980000000000   29.0918704495192664 -12.3399702543800061 -3.2495703998666725  0 0 0
85        9    7   -0.3860370000000000   29.7321891609356044 -12.1074565936865639 -2.2345587932330115  0 0 0
86        9    1    0.0061770000000000   26.3569826068535846 -11.2396540177039590 -4.8235575161565585  0 0 0
87        9    1    0.0061770000000000   26.8601656624981437 -12.9588160129203214 -4.7600142661932896  0 0 0
88        9    1    0.0061770000000000   27.8504207369467700 -11.7784232513868883 -5.6554881600328750  0 0 0
89        9    3    0.2812760000000000   27.6787912363711683 -10.9255250730079432 -2.9472087566939118  0 0 0
90        9    2    0.0994030000000000   29.3729183657664308 -13.1236451087179962 -3.9722207488954830  0 0 0
91        10   4    0.1147190000000000  -11.4659637269473098 -4.7146445980223426  -11.3236132585628777 0 0 0
92        10   6   -0.2320900000000000  -11.7807038220932121 -3.9469998051033102  -12.4965656341569762 0 0 0
93        10   5    0.1041980000000000  -12.8528182854651014 -3.1089785379658128  -12.5772101420549394 0 0 0
94        10   7   -0.3860370000000000  -13.1165883785065880 -2.4579918232546283  -13.5776904524491080 0 0 0
95        10   1    0.0061770000000000  -10.5649434322294660 -5.3011779055445922  -11.5153093163563902 0 0 0
96        10   1    0.0061770000000000  -12.3051023089954281 -5.3760914336161383  -11.0922443747404511 0 0 0
97        10   1    0.0061770000000000  -11.3023197128573365 -4.0346280120776692  -10.4833859083815923 0 0 0
98        10   3    0.2812760000000000  -11.2013962103897224 -4.0039458161770174  -13.3260153890217250 0 0 0
99        10   2    0.0994030000000000  -13.4599697647412420 -3.0721439489802904  -11.6577711665013322 0 0 0
100       11   4    0.1147190000000000   20.6237995613081750  27.1863459334434481  12.4564432732126082 0 0 0
101       11   6   -0.2320900000000000   20.3000878995059324  28.4091530423521021  11.7751865922063352 0 0 0
102       11   5    0.1041980000000000   19.0217031433026342  28.8340451125200197  11.5668317333345207 0 0 0
103       11   7   -0.3860370000000000   18.7513314771329149  29.8753194149189518  10.9863438303630510 0 0 0
104       11   1    0.0061770000000000   21.7098255625087582  27.0771591837560486  12.4915438331648527 0 0 0
105       11   1    0.0061770000000000   20.1769942214517499  26.3466293574725441  11.9175201832308417 0 0 0
106       11   1    0.0061770000000000   20.2147714666803964  27.2213701465334061  13.4696822592384091 0 0 0
107       11   3    0.2812760000000000   21.0302141600813997  29.0134140783322856  11.4165624198277271 0 0 0
108       11   2    0.0994030000000000   18.2542819117370207  28.1527768958637736  11.9696915176470497 0 0 0
109       12   4    0.1147190000000000   12.0820891511523349  26.9093838744378608 -12.2070267721945847 0 0 0
110       12   6   -0.2320900000000000   12.4831401186599713  28.2683286555008806 -11.9691521529457745 0 0 0
111       12   5    0.1041980000000000   11.5983017667169737  29.2852905175637694 -11.7665138904176505 0 0 0
112       12   7   -0.3860370000000000   11.9445123123292660  30.4401596126852176 -11.5646851327040938 0 0 0
113       12   1    0.0061770000000000   12.9749138223706204  26.2941114328823353 -12.3370659971471071 0 0 0
114       12   1    0.0061770000000000   11.4624345368999947  26.8707765879255192 -13.1068793562681911 0 0 0
115       12   1    0.0061770000000000   11.4988818578694829  26.5531326177642235 -11.3537166200927029 0 0 0
116       12   3    0.2812760000000000   13.4633036402498103  28.5241533585242095 -11.9434569147170819 0 0 0
117       12   2    0.0994030000000000   10.5422284359769254  28.9708765079085779 -11.8013088057382234 0 0 0
118       13   4    0.1147190000000000   19.3077851824350937 -19.2301632682415047 -11.5989804303113910 0 0 0
119       13   6   -0.2320900000000000   20.2464606616344689 -20.3174837770471122 -11.6269015133943263 0 0 0
120       13   5    0.1041980000000000   20.7698443076483166 -20.8250481284932150 -12.7787090457652432 0 0 0
121       13   7   -0.3860370000000000   21.5681898724234955 -21.7505848425456421 -12.7972930804410332 0 0 0
122       13   1    0.0061770000000000   19.0451460627195175 -19.0154427061033680 -10.5609428375961265 0 0 0
123       13   1    0.0061770000000000   18.4152996403220399 -19.5124671614346248 -12.1637557003145940 0 0 0
124       13   1    0.0061770000000000   19.7633602067643288 -18.3512777294550986 -12.0628721498101790 0 0 0
125       13   3    0.2812760000000000   20.5596377723984780 -20.7560372324129894 -10.7687534975601356 0 0 0
126       13   2    0.0994030000000000   20.4072856973632426 -20.3245045579754411 -13.6915973870323846 0 0 0
127       14   4    0.1147190000000000   5.0008470181712497   11.9659341512215800 -19.4947703815602758 0 0 0
128       14   6   -0.2320900000000000   3.9005581988642173   11.5841037945085716 -20.3360356333092938 0 0 0
129       14   5    0.1041980000000000   2.7663371853176151   12.3285207052618588 -20.4686959469448482 0 0 0
130       14   7   -0.3860370000000000   1.8326418790528498   11.9992423714088439 -21.1857092453669367 0 0 0
131       14   1    0.0061770000000000   5.7808310317410019   11.2047627583104656 -19.5644074413012312 0 0 0
132       14   1    0.0061770000000000   4.6497354014817525   12.0536580985973885 -18.4631589342204805 0 0 0
133       14   1    0.0061770000000000   5.3867095528597391   12.9335672161467272 -19.8264031249487083 0 0 0
134       14   3    0.2812760000000000   3.9306553814826506   10.7256030471370796 -20.8735276605627469 0 0 0
135       14   2    0.0994030000000000   2.7682862317707171   13.2544134996328911 -19.8703010354944531 0 0 0
136       15   4    0.1147190000000000   11.6376057777833193 -13.0610314280604847 -27.8913001194949821 0 0 0
137       15   6   -0.2320900000000000   11.6381932389018008 -11.6615954021240107 -28.2164702214424850 0 0 0
138       15   5    0.1041980000000000   12.7211788730279451 -10.8527033163634634 -28.0402649057724531 0 0 0
139       15   7   -0.3860370000000000   12.7166785985640569 -9.6623304571340167  -28.3183142174775107 0 0 0
140       15   1    0.0061770000000000   10.6557936297992946 -13.4785054091716923 -28.1244666952860776 0 0 0
141       15   1    0.0061770000000000   11.8563331903217684 -13.1818491264555924 -26.8269888683288791 0 0 0
142       15   1    0.0061770000000000   12.4111462115118858 -13.5653675916654173 -28.4765044871882473 0 0 0
143       15   3    0.2812760000000000   10.8117242292497622 -11.2161497325791775 -28.5977236602053857 0 0 0
144       15   2    0.0994030000000000   13.6011518930655768 -11.3702731786715496 -27.6241799899965521 0 0 0
145       16   4    0.1147190000000000  -11.0266755149312701  27.5549896456823618 -4.3122933237575163  0 0 0
146       16   6   -0.2320900000000000  -12.1612347410990438  28.4363851777776731 -4.3036672400577736  0 0 0
147       16   5    0.1041980000000000  -13.1797659942879726  28.3365216537042457 -3.4032040446760532  0 0 0
148       16   7   -0.3860370000000000  -14.1432435404011052  29.0888649656240901 -3.4000774898164656  0 0 0
149       16   1    0.0061770000000000  -10.3593251156775885  27.8445173909176056 -5.1268013963110883  0 0 0
150       16   1    0.0061770000000000  -11.3720491525139149  26.5274669759182835 -4.4541074633341005  0 0 0
151       16   1    0.0061770000000000  -10.5070216974557606  27.6301723093310514 -3.3533921830919047  0 0 0
152       16   3    0.2812760000000000  -12.2455137678427057  29.1819245636692202 -4.9847657077814924  0 0 0
153       16   2    0.0994030000000000  -13.0549761180160395  27.5153704825680414 -2.6782930319153997  0 0 0
154       17   4    0.1147190000000000  -28.2198527995397086  11.4288431355723947  3.0590620290359274  0 0 0
155       17   6   -0.2320900000000000  -27.9811070099563537  11.7002422358809994  4.4495655735506077  0 0 0
156       17   5    0.1041980000000000  -27.7640341803376138  12.9530272953178294  4.9411157590792136  0 0 0
157       17   7   -0.3860370000000000  -27.5611182216166561  13.1788540665609979  6.1252384720132378  0 0 0
158       17   1    0.0061770000000000  -28.3627603879418189  10.3542164066242020  2.9273005570223387  0 0 0
159       17   1    0.0061770000000000  -27.3612760152059700  11.7701524964664710  2.4746384992484711  0 0 0
160       17   1    0.0061770000000000  -29.1125882006499559  11.9709877150339725  2.7361275479643883  0 0 0
161       17   3    0.2812760000000000  -27.9652195382411612  10.9498887347936442  5.1304064247401113  0 0 0
162       17   2    0.0994030000000000  -27.7882568117033451  13.7435935559749005  4.1731470180874881  0 0 0
163       18   4    0.1147190000000000  -13.0691312151094952 -19.8345262795990749  27.6927915294672466 0 0 0
164       18   6   -0.2320900000000000  -11.8629651470100121 -20.5321343760357387  28.0430250100932916 0 0 0
165       18   5    0.1041980000000000  -10.7124920637562564 -19.8999647784649305  28.4104292670307856 0 0 0
166       18   7   -0.3860370000000000  -9.6885604825800424  -20.4980487331102736  28.7073786170313525 0 0 0
167       18   1    0.0061770000000000  -13.8399489154158388 -20.5652089955267989  27.4387263558622969 0 0 0
168       18   1    0.0061770000000000  -12.8707044724705995 -19.1822048211834790  26.8382152723103538 0 0 0
169       18   1    0.0061770000000000  -13.3908114762164026 -19.2259997979460806  28.5421449607555466 0 0 0
170       18   3    0.2812760000000000  -11.8250846347732210 -21.5446434436983765  28.0282768680538723 0 0 0
171       18   2    0.0994030000000000  -10.7901072348935276 -18.8002781781442181  28.4152252845878337 0 0 0
172       19   4    0.1147190000000000  -20.2923741760098544 -28.8231735648813903 -3.2755263138687689  0 0 0
173       19   6   -0.2320900000000000  -19.5402138341964395 -28.0978822898574059 -4.2616117653268049  0 0 0
174       19   5    0.1041980000000000  -19.9425145110663387 -26.9031372088546945 -4.7802165861777874  0 0 0
175       19   7   -0.3860370000000000  -19.2990307242642665 -26.2898563996581096 -5.6193438002484797  0 0 0
176       19   1    0.0061770000000000  -19.7578025693718224 -29.7427065492352831 -3.0279408559726280  0 0 0
177       19   1    0.0061770000000000  -21.2806390401905468 -29.0579732297882671 -3.6797523795616498  0 0 0
178       19   1    0.0061770000000000  -20.4074989537366669 -28.2014092460210364 -2.3837083179494987  0 0 0
179       19   3    0.2812760000000000  -18.6618978474190236 -28.4592702178678856 -4.6148635818253263  0 0 0
180       19   2    0.0994030000000000  -20.9010377474540654 -26.5408044590285215 -4.3736382798108568  0 0 0
181       20   4    0.1147190000000000  -5.0625206724489011   20.2657055326432882 -12.2764931290885393 0 0 0
182       20   6   -0.2320900000000000  -3.6346835078674151   20.3770403370665640 -12.1622883841611813 0 0 0
183       20   5    0.1041980000000000  -2.8571956164325236   19.4383663653763676 -11.5518652874950156 0 0 0
184       20   7   -0.3860370000000000  -1.6425145516120483   19.5377369764089615 -11.4570253769636405 0 0 0
185       20   1    0.0061770000000000  -5.4451122526392002   21.1419406818741891 -12.8041690873430163 0 0 0
186       20   1    0.0061770000000000  -5.4987088779067639   20.2071824091686914 -11.2757374495951694 0 0 0
187       20   1    0.0061770000000000  -5.3080139151465566   19.3549551253987815 -12.8291690594435224 0 0 0
188       20   3    0.2812760000000000  -3.1437796426078330   21.1783896481508158 -12.5413394753058913 0 0 0
189       20   2    0.0994030000000000  -3.4240728440805741   18.5816923276213259 -11.1517183928293999 0 0 0
190       21   4    0.1147190000000000   12.7043553828861580  3.4273009799741700  -11.3378635118601423 0 0 0
191       21   6   -0.2320900000000000   11.7965670130171070  4.4492876462858968  -11.7801537563959258 0 0 0
192       21   5    0.1041980000000000   11.2301139472193974  4.4617597421695532  -13.0199876059389510 0 0 0
193       21   7   -0.3860370000000000   10.4583209265752028  5.3337852777862924  -13.3917754684590200 0 0 0
194       21   1    0.0061770000000000   13.0130188829775957  3.6467282065416615  -10.3135662860256723 0 0 0
195       21   1    0.0061770000000000   13.5747349276250553  3.4102693893855838  -11.9991852260221243 0 0 0
196       21   1    0.0061770000000000   12.2012369296338790  2.4576745930368471  -11.3812272323174231 0 0 0
197       21   3    0.2812760000000000   11.5397366584345615  5.2161720799141236  -11.1696183459374367 0 0 0
198       21   2    0.0994030000000000   11.5317209738564603  3.6136239656476614  -13.6564282092687197 0 0 0
199       22   4    0.1147190000000000  -28.3583212307404011  12.6198111888596554 -12.8816572319821052 0 0 0
200       22   6   -0.2320900000000000  -28.3919126557377126  11.6768089601069445 -11.7982480093270379 0 0 0
201       22   5    0.1041980000000000  -27.3191369950924638  11.4174524566539048 -10.9981860183264679 0 0 0
202       22   7   -0.3860370000000000  -27.3526274268291836  10.6139027715453995 -10.0775853933298833 0 0 0
203       22   1    0.0061770000000000  -29.3385854826475025  12.6420633725508047 -13.3624826760405249 0 0 0
204       22   1    0.0061770000000000  -27.5924310024554735  12.3140884893345923 -13.5993917412630658 0 0 0
205       22   1    0.0061770000000000  -28.1079235020592009  13.6087193154872885 -12.4885343312740549 0 0 0
206       22   3    0.2812760000000000  -29.2363791965139797  11.1583529710864156 -11.5863359946650331 0 0 0
207       22   2    0.0994030000000000  -26.4188956731166513  11.9986061166003957 -11.2573842460172422 0 0 0
208       23   4    0.1147190000000000   20.6125656984681420 -3.9303082781714038  -27.0668173891734014 0 0 0
209       23   6   -0.2320900000000000   19.4719141049856255 -3.9794774400595965  -27.9389718862695275 0 0 0
210       23   5    0.1041980000000000   19.5696275098870665 -4.1094850443719002  -29.2923981741491346 0 0 0
211       23   7   -0.3860370000000000   18.5959707297126400 -4.1506367861165998  -30.0303807110507464 0 0 0
212       23   1    0.0061770000000000   20.2664495248119785 -3.8235198038249485  -26.0365717451736955 0 0 0
213       23   1    0.0061770000000000   21.2398469737482927 -3.0791251122653298  -27.3446706892456426 0 0 0
214       23   1    0.0061770000000000   21.1888474072266710 -4.8526573347384296  -27.1779728231398039 0 0 0
215       23   3    0.2812760000000000   18.5309312793893035 -3.9172883843435149  -27.5681472696622940 0 0 0
216       23   2    0.0994030000000000   20.6068561754793009 -4.1741036968500609  -29.6602824773283515 0 0 0
217       24   4    0.1147190000000000  -20.5230069855702446  19.3842526176792127 -27.2320965782477877 0 0 0
218       24   6   -0.2320900000000000  -20.2572543985299589  20.0141179432902696 -28.4957430339759163 0 0 0
219       24   5    0.1041980000000000  -19.1804730898304392  20.8197522233208723 -28.7186959964477211 0 0 0
220       24   7   -0.3860370000000000  -18.9587499231368959  21.3536539885689614 -29.7957786110211629 0 0 0
221       24   1    0.0061770000000000  -21.4393311105484834  18.7959965742211139 -27.3152301828724049 0 0 0
222       24   1    0.0061770000000000  -20.6369261956602124  20.1544175524448512 -26.4645906020952033 0 0 0
223       24   1    0.0061770000000000  -19.6814735017127198  18.7375255759066768 -26.9698954159949160 0 0 0
224       24   3    0.2812760000000000  -20.8776416320890199  19.8776807557631514 -29.2852565723630782 0 0 0
225       24   2    0.0994030000000000  -18.5281525666310181  20.9456121725138971 -27.8389261721743715 0 0 0
226       25   4    0.1147190000000000  -19.9583386822612674 -19.1675514520013621  27.2691149160674513 0 0 0
227       25   6   -0.2320900000000000  -20.5085888021790730 -20.2046401029037241  28.0972628899827086 0 0 0
228       25   5    0.1041980000000000  -19.7539248569608610 -20.9792376920054267  28.9271384879764923 0 0 0
229       25   7   -0.3860370000000000  -20.2268168517131421 -21.8607006774996933  29.6297873211091911 0 0 0
230       25   1    0.0061770000000000  -20.7668171760875175 -18.6993718008850500  26.7036269761420826 0 0 0
231       25   1    0.0061770000000000  -19.2244067833973311 -19.6049831824287963  26.5870632423320536 0 0 0
232       25   1    0.0061770000000000  -19.4630369055294317 -18.4274018611960138  27.9031800970204493 0 0 0
233       25   3    0.2812760000000000  -21.5026613792121353 -20.4011700904200985  28.0924954380791618 0 0 0
234       25   2    0.0994030000000000  -18.6784179663682082 -20.7379525443688344  28.9065437964829890 0 0 0
235       26   4    0.1147190000000000   2.8993399632339334  -4.1914527718664427   27.8999178367544118 0 0 0
236       26   6   -0.2320900000000000   4.2005141676723197  -4.1177043407193672   28.5046194074547543 0 0 0
237       26   5    0.1041980000000000   5.3094299505652724  -3.6802679761601387   27.8434327342586414 0 0 0
238       26   7   -0.3860370000000000   6.4145920929952549  -3.6195337946058457   28.3623231025740523 0 0 0
239       26   1    0.0061770000000000   2.1876506042462753  -4.5714365157619534   28.6359320224729181 0 0 0
240       26   1    0.0061770000000000   2.9428140048506757  -4.8602999797404207   27.0362336023118068 0 0 0
241       26   1    0.0061770000000000   2.6017272825061761  -3.1936047275748818   27.5668864669503932 0 0 0
242       26   3    0.2812760000000000   4.3422583887099675  -4.3959201627381859   29.4686378643220586 0 0 0
243       26   2    0.0994030000000000   5.1182754259619205  -3.3863816115745720   26.7982301280935289 0 0 0
244       27   4    0.1147190000000000   3.5416909522573103   20.1759985631440912 -18.9969583743689867 0 0 0
245       27   6   -0.2320900000000000   3.6610782426853179   20.0813293268499606 -20.4255736275367994 0 0 0
246       27   5    0.1041980000000000   4.8204085688041527   19.7455487790988720 -21.0591485813451058 0 0 0
247       27   7   -0.3860370000000000   4.9170399841140364   19.6665076648760291 -22.2751806894893036 0 0 0
248       27   1    0.0061770000000000   2.5174846940160736   20.4590883088373516 -18.7450297984535119 0 0 0
249       27   1    0.0061770000000000   4.2432964109825599   20.9287218621017672 -18.6276963372013036 0 0 0
250       27   1    0.0061770000000000   3.7863215580867706   19.2079004759691827 -18.5518450395880699 0 0 0
251       27   3    0.2812760000000000   2.8667165362432674   20.2660518641281548 -21.0269837343357899 0 0 0
252       27   2    0.0994030000000000   5.6625649335523320   19.5518625587036006 -20.3745932213901035 0 0 0
253       28   4    0.1147190000000000   19.5062223301086348  21.0062419691203353  4.1329148875148176  0 0 0
254       28   6   -0.2320900000000000   20.0613607883421032  19.7219815661103084  4.4594935770380157  0 0 0
255       28   5    0.1041980000000000   20.6306727713893707  18.8960455695723262  3.5364950943839992  0 0 0
256       28   7   -0.3860370000000000   21.1015430835421611  17.8039755491501275  3.8193085237472335  0 0 0
257       28   1    0.0061770000000000   19.1153490553825591  21.4651698858099493  5.0435243105320797  0 0 0
258       28   1    0.0061770000000000   18.7040082485012249  20.8746246907248043  3.4019384885123913  0 0 0
259       28   1    0.0061770000000000   20.2882010462064990  21.6349049202675587  3.6987765432916957  0 0 0
260       28   3    0.2812760000000000   20.0481177363240448  19.3769716097289688  5.4121844002178054  0 0 0
261       28   2    0.0994030000000000   20.6275343439123731  19.3030936432246278  2.5119660555037351  0 0 0
262       29   4    0.1147190000000000   4.7312039555376275   20.4091072972444820 -3.2452976212313800  0 0 0
263       29   6   -0.2320900000000000   3.5624624947774000   19.7733049389892308 -3.7874746127545449  0 0 0
264       29   5    0.1041980000000000   3.3351528850156100   19.6403853066620400 -5.1249630486118294  0 0 0
265       29   7   -0.3860370000000000   2.3389060455915907   19.0987004441320920 -5.5814594460166322  0 0 0
266       29   1    0.0061770000000000   4.6734380196416172   20.3860931493895876 -2.1550042127634770  0 0 0
267       29   1    0.0061770000000000   4.7740350092409907   21.4424913737247671 -3.5995290257054400  0 0 0
268       29   1    0.0061770000000000   5.6213993414161862   19.8748051614763774 -3.5877261877590021  0 0 0
269       29   3    0.2812760000000000   2.8481482107421368   19.3921037392148357 -3.1781571241546009  0 0 0
270       29   2    0.0994030000000000   4.1318559187786548   20.0660179928756115 -5.7569906017449002  0 0 0
271       30   4    0.1147190000000000   4.2298318073889876   20.8764794533909210  19.3308987090634012 0 0 0