
                                 *****************
                                 * O   R   C   A *
                                 *****************

           --- An Ab Initio, DFT and Semiempirical electronic structure package ---

                  #######################################################
                  #                        -***-                        #
                  #          Department of theory and spectroscopy      #
                  #               Directorship: Frank Neese             #
                  #        Max Planck Institute fuer Kohlenforschung    #
                  #                Kaiser Wilhelm Platz 1               #
                  #                 D-45470 Muelheim/Ruhr               #
                  #                      Germany                        #
                  #                                                     #
                  #                  All rights reserved                #
                  #                        -***-                        #
                  #######################################################


                         Program Version 4.1.2  - RELEASE  -


 With contributions from (in alphabetic order):
   Daniel Aravena         : Magnetic Properties
   Michael Atanasov       : Ab Initio Ligand Field Theory
   Alexander A. Auer      : GIAO ZORA
   Ute Becker             : Parallelization
   Giovanni Bistoni       : ED, Open-shell LED
   Martin Brehm           : Molecular dynamics
   Dmytro Bykov           : SCF Hessian
   Vijay G. Chilkuri      : MRCI spin determinant printing
   Dipayan Datta          : RHF DLPNO-CCSD density
   Achintya Kumar Dutta   : EOM-CC, STEOM-CC
   Dmitry Ganyushin       : Spin-Orbit,Spin-Spin,Magnetic field MRCI
   Miquel Garcia          : C-PCM Hessian
   Yang Guo               : DLPNO-NEVPT2, CIM, IAO-localization
   Andreas Hansen         : Spin unrestricted coupled pair/coupled cluster methods
   Benjamin Helmich-Paris : CASSCF linear response (MC-RPA)
   Lee Huntington         : MR-EOM, pCC
   Robert Izsak           : Overlap fitted RIJCOSX, COSX-SCS-MP3, EOM
   Christian Kollmar      : KDIIS, OOCD, Brueckner-CCSD(T), CCSD density
   Simone Kossmann        : Meta GGA functionals, TD-DFT gradient, OOMP2, MP2 Hessian
   Martin Krupicka        : AUTO-CI
   Lucas Lang             : DCDCAS
   Dagmar Lenk            : GEPOL surface, SMD
   Dimitrios Liakos       : Extrapolation schemes; parallel MDCI
   Dimitrios Manganas     : ROCIS; embedding schemes
   Dimitrios Pantazis     : SARC Basis sets
   Taras Petrenko         : DFT Hessian,TD-DFT gradient, ASA, ECA, R-Raman, ABS, FL, XAS/XES, NRVS
   Peter Pinski           : DLPNO-MP2, DLPNO-MP2 Gradient
   Christoph Reimann      : Effective Core Potentials
   Marius Retegan         : Local ZFS, SOC
   Christoph Riplinger    : Optimizer, TS searches, QM/MM, DLPNO-CCSD(T), (RO)-DLPNO pert. Triples
   Tobias Risthaus        : Range-separated hybrids, TD-DFT gradient, RPA, STAB
   Michael Roemelt        : Restricted open shell CIS
   Masaaki Saitow         : Open-shell DLPNO
   Barbara Sandhoefer     : DKH picture change effects
   Avijit Sen             : IP-ROCIS
   Kantharuban Sivalingam : CASSCF convergence, NEVPT2, FIC-MRCI
   Bernardo de Souza      : ESD, SOC TD-DFT
   Georgi Stoychev        : AutoAux, RI-MP2 NMR
   Willem Van den Heuvel  : Paramagnetic NMR
   Boris Wezisla          : Elementary symmetry handling
   Frank Wennmohs         : Technical directorship


 We gratefully acknowledge several colleagues who have allowed us to
 interface, adapt or use parts of their codes:
   Stefan Grimme, W. Hujo, H. Kruse,             : VdW corrections, initial TS optimization,
                  C. Bannwarth                     DFT functionals, gCP, sTDA/sTD-DF
   Ed Valeev                                     : LibInt (2-el integral package), F12 methods
   Garnet Chan, S. Sharma, J. Yang, R. Olivares  : DMRG
   Ulf Ekstrom                                   : XCFun DFT Library
   Mihaly Kallay                                 : mrcc  (arbitrary order and MRCC methods)
   Andreas Klamt, Michael Diedenhofen            : otool_cosmo (COSMO solvation model)
   Jiri Pittner, Ondrej Demel                    : Mk-CCSD
   Frank Weinhold                                : gennbo (NPA and NBO analysis)
   Christopher J. Cramer and Donald G. Truhlar   : smd solvation model
   Lars Goerigk                                  : TD-DFT with DH, B97 family of functionals
   V. Asgeirsson, H. Jonsson                     : NEB implementation
   FAccTs GmbH                                   : IRC, NEB, NEB-TS, Multilevel


 Your calculation uses the libint2 library for the computation of 2-el integrals
 For citations please refer to: http://libint.valeyev.net

 This ORCA versions uses:
   CBLAS   interface :  Fast vector & matrix operations
   LAPACKE interface :  Fast linear algebra routines
   SCALAPACK package :  Parallel linear algebra routines


Your calculation utilizes the atom-pairwise dispersion correction
with the zero-damping scheme (D30)
Cite in your paper:
S.Grimme, J.Antony, S.Ehrlich and H.Krieg, J.Chem.Phys., 132, (2010), 154104 
   

XCFun DFT library Copyright 2009-2010 Ulf Ekstrom and contributors.
See http://admol.org/xcfun for more information. This is free soft-
ware; see the source code for copying conditions. There is ABSOLUTELY
NO WARRANTY; not even for MERCHANTABILITY or FITNESS FOR A PARTICULAR
PURPOSE. For details see the documentation. Scientific users of this 
library should cite U. Ekstrom, L. Visscher, R. Bast, A. J. Thorvald-
sen and K. Ruud; J.Chem.Theor.Comp. 2010, DOI: 10.1021/ct100117s
XCFun Version 0.99 
----- Orbital basis set information -----
Your calculation utilizes the basis: def2-TZVP
   F. Weigend and R. Ahlrichs, Phys. Chem. Chem. Phys. 7, 3297 (2005).

================================================================================
                                        WARNINGS
                       Please study these warnings very carefully!
================================================================================


INFO   : the flag for use of LIBINT has been found!

================================================================================
                                       INPUT FILE
================================================================================
NAME = 77.in
|  1> #Run DFT-D3 single point of the dimer
|  2> ! wB97X-D3 def2-TZVP TIGHTSCF  CHELPG PAL8
|  3> 
|  4> %base "77_charges"
|  5> 
|  6> %scf
|  7> MaxIter 1000
|  8> end
|  9> %output
| 10>   Print[ P_Mayer ] 1
| 11>   Print[ P_NatPop ] 1
| 12>   Print[ P_Hirshfeld ] 1
| 13>   Print[ P_Mulliken ] 1
| 14>   Print [ P_Loewdin ] 1
| 15> end
| 16> 
| 17> * xyz 0 1
| 18>   C                      5.319531             -2.728616            -6.820554           
| 19>   O                      5.289630             -3.765190            -7.709131           
| 20>   H                      5.229326             -4.526388            -7.188563           
| 21>   H                      6.163591             -2.842064            -6.126778           
| 22>   H                      5.402702             -1.739492            -7.280825           
| 23>   H                      4.475132             -2.769805            -6.194841           
| 24> *
| 25> 
| 26>                          ****END OF INPUT****
================================================================================

                       ****************************
                       * Single Point Calculation *
                       ****************************

---------------------------------
CARTESIAN COORDINATES (ANGSTROEM)
---------------------------------
  C      5.319531   -2.728616   -6.820554
  O      5.289630   -3.765190   -7.709131
  H      5.229326   -4.526388   -7.188563
  H      6.163591   -2.842064   -6.126778
  H      5.402702   -1.739492   -7.280825
  H      4.475132   -2.769805   -6.194841

----------------------------
CARTESIAN COORDINATES (A.U.)
----------------------------
  NO LB      ZA    FRAG     MASS         X           Y           Z
   0 C     6.0000    0    12.011   10.052457   -5.156337  -12.888979
   1 O     8.0000    0    15.999    9.995952   -7.115178  -14.568146
   2 H     1.0000    0     1.008    9.881994   -8.553634  -13.584415
   3 H     1.0000    0     1.008   11.647499   -5.370723  -11.577933
   4 H     1.0000    0     1.008   10.209627   -3.287163  -13.758765
   5 H     1.0000    0     1.008    8.456774   -5.234173  -11.706553

--------------------------------
INTERNAL COORDINATES (ANGSTROEM)
--------------------------------
 C      0   0   0     0.000000000000     0.00000000     0.00000000
 O      1   0   0     1.365631287063     0.00000000     0.00000000
 H      2   1   0     0.924148262047   105.07685847     0.00000000
 H      1   2   3     1.098468420338   110.44974256    57.83974264
 H      1   2   3     1.094135775879   114.46511438   179.31817502
 H      1   2   3     1.051771345536   109.86404454   304.02449458

---------------------------
INTERNAL COORDINATES (A.U.)
---------------------------
 C      0   0   0     0.000000000000     0.00000000     0.00000000
 O      1   0   0     2.580669132464     0.00000000     0.00000000
 H      2   1   0     1.746387122408   105.07685847     0.00000000
 H      1   2   3     2.075804481200   110.44974256    57.83974264
 H      1   2   3     2.067616969736   114.46511438   179.31817502
 H      1   2   3     1.987559798569   109.86404454   304.02449458

---------------------
BASIS SET INFORMATION
---------------------
There are 3 groups of distinct atoms

 Group   1 Type C   : 11s6p2d1f contracted to 5s3p2d1f pattern {62111/411/11/1}
 Group   2 Type O   : 11s6p2d1f contracted to 5s3p2d1f pattern {62111/411/11/1}
 Group   3 Type H   : 5s1p contracted to 3s1p pattern {311/1}

Atom   0C    basis set group =>   1
Atom   1O    basis set group =>   2
Atom   2H    basis set group =>   3
Atom   3H    basis set group =>   3
Atom   4H    basis set group =>   3
Atom   5H    basis set group =>   3


           ************************************************************
           *        Program running with 8 parallel MPI-processes     *
           *              working on a common directory               *
           ************************************************************
------------------------------------------------------------------------------
                           ORCA GTO INTEGRAL CALCULATION
------------------------------------------------------------------------------

                         BASIS SET STATISTICS AND STARTUP INFO

 # of primitive gaussian shells          ...   64
 # of primitive gaussian functions       ...  124
 # of contracted shells                  ...   38
 # of contracted basis functions         ...   86
 Highest angular momentum                ...    3
 Maximum contraction depth               ...    6
 Integral package used                   ... LIBINT
 Integral threshhold            Thresh   ...  2.500e-11
 Primitive cut-off              TCut     ...  2.500e-12


------------------------------ INTEGRAL EVALUATION ----------------------------


 * One electron integrals 
 Pre-screening matrix                    ... done
 Shell pair data                         ... done (   0.000 sec)



           ************************************************************
           *        Program running with 8 parallel MPI-processes     *
           *              working on a common directory               *
           ************************************************************
-------------------------------------------------------------------------------
                                 ORCA SCF
-------------------------------------------------------------------------------

------------
SCF SETTINGS
------------
Hamiltonian:
 Density Functional     Method          .... DFT(GTOs)
 Exchange Functional    Exchange        .... WB97X-D3
 Correlation Functional Correlation     .... WB97X-D3
 Gradients option       PostSCFGGA      .... off
 Hybrid DFT is turned on
   Fraction HF Exchange ScalHFX         ....  0.195728
   Scaling of DF-GGA-X  ScalDFX         ....  0.000000
   Scaling of DF-GGA-C  ScalDFC         ....  1.000000
   Scaling of DF-LDA-C  ScalLDAC        ....  1.000000
   Perturbative correction              ....  0.000000
   Density functional embedding theory  .... OFF
 Long-range corrected/Screened/Range-Separated Hybrid DFT is turned on
   Amount of maximum screened exact exchange              ....  0.804272
   Range separation parameter mu (erf(mu*r12)/r12)        ....  0.250000


General Settings:
 Integral files         IntName         .... 77_charges
 Hartree-Fock type      HFTyp           .... RHF
 Total Charge           Charge          ....    0
 Multiplicity           Mult            ....    1
 Number of Electrons    NEL             ....   18
 Basis Dimension        Dim             ....   86
 Nuclear Repulsion      ENuc            ....     41.5663517429 Eh

Convergence Acceleration:
 DIIS                   CNVDIIS         .... on
   Start iteration      DIISMaxIt       ....    12
   Startup error        DIISStart       ....  0.200000
   # of expansion vecs  DIISMaxEq       ....     5
   Bias factor          DIISBfac        ....   1.050
   Max. coefficient     DIISMaxC        ....  10.000
 Newton-Raphson         CNVNR           .... off
 SOSCF                  CNVSOSCF        .... on
   Start iteration      SOSCFMaxIt      ....   150
   Startup grad/error   SOSCFStart      ....  0.003300
 Level Shifting         CNVShift        .... on
   Level shift para.    LevelShift      ....    0.2500
   Turn off err/grad.   ShiftErr        ....    0.0010
 Zerner damping         CNVZerner       .... off
 Static damping         CNVDamp         .... on
   Fraction old density DampFac         ....    0.7000
   Max. Damping (<1)    DampMax         ....    0.9800
   Min. Damping (>=0)   DampMin         ....    0.0000
   Turn off err/grad.   DampErr         ....    0.1000
 Fernandez-Rico         CNVRico         .... off

SCF Procedure:
 Maximum # iterations   MaxIter         ....  1000
 SCF integral mode      SCFMode         .... Direct
   Integral package                     .... LIBINT
 Reset frequency        DirectResetFreq ....    20
 Integral Threshold     Thresh          ....  2.500e-11 Eh
 Primitive CutOff       TCut            ....  2.500e-12 Eh

Convergence Tolerance:
 Convergence Check Mode ConvCheckMode   .... Total+1el-Energy
 Convergence forced     ConvForced      .... 0
 Energy Change          TolE            ....  1.000e-08 Eh
 1-El. energy change                    ....  1.000e-05 Eh
 Orbital Gradient       TolG            ....  1.000e-05
 Orbital Rotation angle TolX            ....  1.000e-05
 DIIS Error             TolErr          ....  5.000e-07


Diagonalization of the overlap matrix:
Smallest eigenvalue                        ... 1.543e-03
Time for diagonalization                   ...    0.163 sec
Threshold for overlap eigenvalues          ... 1.000e-08
Number of eigenvalues below threshold      ... 0
Time for construction of square roots      ...    0.276 sec
Total time needed                          ...    0.443 sec

-------------------
DFT GRID GENERATION
-------------------

General Integration Accuracy     IntAcc      ...  4.340
Radial Grid Type                 RadialGrid  ... Gauss-Chebyshev
Angular Grid (max. acc.)         AngularGrid ... Lebedev-110
Angular grid pruning method      GridPruning ... 3 (G Style)
Weight generation scheme         WeightScheme... Becke
Basis function cutoff            BFCut       ...    1.0000e-11
Integration weight cutoff        WCut        ...    1.0000e-14
Grids for H and He will be reduced by one unit

# of grid points (after initial pruning)     ...   6548 (   0.0 sec)
# of grid points (after weights+screening)   ...   6371 (   0.9 sec)
nearest neighbour list constructed           ...    0.0 sec
Grid point re-assignment to atoms done       ...    0.0 sec
Grid point division into batches done        ...    0.0 sec
Reduced shell lists constructed in    0.0 sec

Total number of grid points                  ...     6371
Total number of batches                      ...      103
Average number of points per batch           ...       61
Average number of grid points per atom       ...     1062
Average number of shells per batch           ...    32.00 (84.21%)
Average number of basis functions per batch  ...    73.86 (85.88%)
Average number of large shells per batch     ...    30.50 (95.31%)
Average number of large basis fcns per batch ...    70.21 (95.07%)
Maximum spatial batch extension              ...  19.31, 12.43, 14.76 au
Average spatial batch extension              ...   0.48,  0.35,  0.42 au

Time for grid setup =    1.419 sec

------------------------------
INITIAL GUESS: MODEL POTENTIAL
------------------------------
Loading Hartree-Fock densities                     ... done
Calculating cut-offs                               ... done
Setting up the integral package                    ... done
Initializing the effective Hamiltonian             ... done
Starting the Coulomb interaction                   ... done (   0.0 sec)
Reading the grid                                   ... done
Mapping shells                                     ... done
Starting the XC term evaluation                    ... done (   0.1 sec)
  promolecular density results
     # of electrons  =     17.994370895
     EX              =    -14.461052879
     EC              =     -0.579393957
     EX+EC           =    -15.040446835
Transforming the Hamiltonian                       ... done (   0.0 sec)
Diagonalizing the Hamiltonian                      ... done (   0.0 sec)
Back transforming the eigenvectors                 ... done (   0.0 sec)
Now organizing SCF variables                       ... done
                      ------------------
                      INITIAL GUESS DONE (   1.8 sec)
                      ------------------
--------------
SCF ITERATIONS
--------------
ITER       Energy         Delta-E        Max-DP      RMS-DP      [F,P]     Damp
               ***  Starting incremental Fock matrix formation  ***
  0   -115.6380011262   0.000000000000 0.03882198  0.00153342  0.2471780 0.7000
  1   -115.6773396097  -0.039338483488 0.02486599  0.00108870  0.1238570 0.7000
                               ***Turning on DIIS***
  2   -115.6956836021  -0.018343992432 0.03925591  0.00198570  0.0476043 0.0000
  3   -115.7254394097  -0.029755807594 0.01880560  0.00070569  0.0627878 0.0000
  4   -115.7302388786  -0.004799468915 0.00411864  0.00013346  0.0061876 0.0000
                      *** Initiating the SOSCF procedure ***
                           *** Shutting down DIIS ***
                      *** Re-Reading the Fockian *** 
                      *** Removing any level shift *** 
ITER      Energy       Delta-E        Grad      Rot      Max-DP    RMS-DP
  5   -115.73033100  -0.0000921218  0.000525  0.000525  0.000788  0.000046
               *** Restarting incremental Fock matrix formation ***
  6   -115.73033923  -0.0000082257  0.000119  0.000194  0.000529  0.000029
  7   -115.73033998  -0.0000007555  0.000049  0.000115  0.000268  0.000014
  8   -115.73034004  -0.0000000615  0.000028  0.000019  0.000035  0.000002
  9   -115.73034006  -0.0000000136  0.000009  0.000007  0.000018  0.000001
 10   -115.73034006  -0.0000000013  0.000003  0.000003  0.000005  0.000000
                  ***Gradient check signals convergence***
              ***Rediagonalizing the Fockian in SOSCF/NRSCF***

               *****************************************************
               *                     SUCCESS                       *
               *           SCF CONVERGED AFTER  11 CYCLES          *
               *****************************************************

Setting up the final grid:

General Integration Accuracy     IntAcc      ...  4.670
Radial Grid Type                 RadialGrid  ... Gauss-Chebyshev
Angular Grid (max. acc.)         AngularGrid ... Lebedev-302
Angular grid pruning method      GridPruning ... 3 (G Style)
Weight generation scheme         WeightScheme... Becke
Basis function cutoff            BFCut       ...    1.0000e-11
Integration weight cutoff        WCut        ...    1.0000e-14
Grids for H and He will be reduced by one unit

# of grid points (after initial pruning)     ...  26000 (   0.0 sec)
# of grid points (after weights+screening)   ...  25169 (   0.0 sec)
nearest neighbour list constructed           ...    0.0 sec
Grid point re-assignment to atoms done       ...    0.0 sec
Grid point division into batches done        ...    0.1 sec
Reduced shell lists constructed in    0.1 sec

Total number of grid points                  ...    25169
Total number of batches                      ...      397
Average number of points per batch           ...       63
Average number of grid points per atom       ...     4195
Average number of shells per batch           ...    31.22 (82.15%)
Average number of basis functions per batch  ...    71.29 (82.90%)
Average number of large shells per batch     ...    29.80 (95.48%)
Average number of large basis fcns per batch ...    68.59 (96.20%)
Maximum spatial batch extension              ...  16.88, 14.01, 13.61 au
Average spatial batch extension              ...   0.33,  0.29,  0.29 au

Final grid set up in    0.2 sec
Final integration                            ... done (   0.3 sec)
Change in XC energy                          ...     0.000045536
Integrated number of electrons               ...    17.999983176
Previous integrated no of electrons          ...    17.999479550

----------------
TOTAL SCF ENERGY
----------------

Total Energy       :         -115.73029452 Eh           -3149.18142 eV

Components:
Nuclear Repulsion  :           41.56635174 Eh            1131.07793 eV
Electronic Energy  :         -157.29664627 Eh           -4280.25935 eV
One Electron Energy:         -239.41360839 Eh           -6514.77549 eV
Two Electron Energy:           82.11696212 Eh            2234.51614 eV

Virial components:
Potential Energy   :         -231.21142334 Eh           -6291.58269 eV
Kinetic Energy     :          115.48112881 Eh            3142.40127 eV
Virial Ratio       :            2.00215763


DFT components:
N(Alpha)           :        8.999991587983 electrons
N(Beta)            :        8.999991587983 electrons
N(Total)           :       17.999983175965 electrons
E(XC)              :      -10.700221163171 Eh       
DFET-embed. en.    :        0.000000000000 Eh       

---------------
SCF CONVERGENCE
---------------

  Last Energy change         ...   -2.8832e-10  Tolerance :   1.0000e-08
  Last MAX-Density change    ...    1.8784e-06  Tolerance :   1.0000e-07
  Last RMS-Density change    ...    1.0248e-07  Tolerance :   5.0000e-09
  Last Orbital Gradient      ...    9.1379e-07  Tolerance :   1.0000e-05
  Last Orbital Rotation      ...    9.4944e-07  Tolerance :   1.0000e-05

             **** THE GBW FILE WAS UPDATED (77_charges.gbw) ****
             **** DENSITY FILE WAS UPDATED (77_charges.scfp.tmp) ****
             **** ENERGY FILE WAS UPDATED (77_charges.en.tmp) ****
----------------
ORBITAL ENERGIES
----------------

  NO   OCC          E(Eh)            E(eV) 
   0   2.0000     -19.226142      -523.1699 
   1   2.0000     -10.304656      -280.4039 
   2   2.0000      -1.161382       -31.6028 
   3   2.0000      -0.798068       -21.7165 
   4   2.0000      -0.627515       -17.0756 
   5   2.0000      -0.547901       -14.9091 
   6   2.0000      -0.538111       -14.6427 
   7   2.0000      -0.437154       -11.8956 
   8   2.0000      -0.369027       -10.0417 
   9   0.0000       0.117578         3.1995 
  10   0.0000       0.161904         4.4056 
  11   0.0000       0.205522         5.5925 
  12   0.0000       0.209109         5.6901 
  13   0.0000       0.232173         6.3178 
  14   0.0000       0.304310         8.2807 
  15   0.0000       0.317207         8.6316 
  16   0.0000       0.416910        11.3447 
  17   0.0000       0.466161        12.6849 
  18   0.0000       0.490866        13.3571 
  19   0.0000       0.534808        14.5529 
  20   0.0000       0.540950        14.7200 
  21   0.0000       0.579487        15.7686 
  22   0.0000       0.599251        16.3065 
  23   0.0000       0.625907        17.0318 
  24   0.0000       0.673463        18.3259 
  25   0.0000       0.794305        21.6141 
  26   0.0000       0.816833        22.2272 
  27   0.0000       0.863901        23.5080 
  28   0.0000       0.983609        26.7654 
  29   0.0000       1.012377        27.5482 
  30   0.0000       1.124659        30.6035 
  31   0.0000       1.384452        37.6729 
  32   0.0000       1.496955        40.7342 
  33   0.0000       1.560412        42.4610 
  34   0.0000       1.604534        43.6616 
  35   0.0000       1.617909        44.0255 
  36   0.0000       1.637999        44.5722 
  37   0.0000       1.655470        45.0476 
  38   0.0000       1.731221        47.1089 
  39   0.0000       1.783057        48.5194 
  40   0.0000       1.961653        53.3793 
  41   0.0000       2.011484        54.7353 
  42   0.0000       2.050741        55.8035 
  43   0.0000       2.082702        56.6732 
  44   0.0000       2.172586        59.1191 
  45   0.0000       2.277423        61.9718 
  46   0.0000       2.347234        63.8715 
  47   0.0000       2.362907        64.2980 
  48   0.0000       2.408520        65.5392 
  49   0.0000       2.492761        67.8315 
  50   0.0000       2.508263        68.2533 
  51   0.0000       2.620615        71.3105 
  52   0.0000       2.645402        71.9850 
  53   0.0000       2.781957        75.7009 
  54   0.0000       2.870076        78.0987 
  55   0.0000       2.892051        78.6967 
  56   0.0000       2.916759        79.3690 
  57   0.0000       2.994445        81.4830 
  58   0.0000       3.127535        85.1045 
  59   0.0000       3.176486        86.4366 
  60   0.0000       3.297895        89.7403 
  61   0.0000       3.390463        92.2592 
  62   0.0000       3.484682        94.8230 
  63   0.0000       3.506742        95.4233 
  64   0.0000       3.653067        99.4050 
  65   0.0000       3.688100       100.3583 
  66   0.0000       3.698668       100.6459 
  67   0.0000       4.098389       111.5228 
  68   0.0000       4.261700       115.9667 
  69   0.0000       4.300659       117.0269 
  70   0.0000       4.418183       120.2249 
  71   0.0000       4.547432       123.7419 
  72   0.0000       5.391310       146.7050 
  73   0.0000       5.508138       149.8841 
  74   0.0000       5.585287       151.9834 
  75   0.0000       5.851514       159.2278 
  76   0.0000       5.912114       160.8768 
  77   0.0000       6.090529       165.7317 
  78   0.0000       6.468743       176.0235 
  79   0.0000       6.554644       178.3609 
  80   0.0000       6.779543       184.4807 
  81   0.0000       6.839779       186.1198 
  82   0.0000       7.038232       191.5200 
  83   0.0000       7.266428       197.7296 
  84   0.0000      22.594496       614.8275 
  85   0.0000      43.662041      1188.1045 

                    ********************************
                    * MULLIKEN POPULATION ANALYSIS *
                    ********************************

-----------------------
MULLIKEN ATOMIC CHARGES
-----------------------
   0 C :   -0.159738
   1 O :   -0.451755
   2 H :    0.308578
   3 H :    0.088347
   4 H :    0.116737
   5 H :    0.097830
Sum of atomic charges:   -0.0000000

--------------------------------
MULLIKEN REDUCED ORBITAL CHARGES
--------------------------------
  0 C s       :     3.208006  s :     3.208006
      pz      :     0.896451  p :     2.840599
      px      :     1.056040
      py      :     0.888108
      dz2     :     0.022139  d :     0.102744
      dxz     :     0.026797
      dyz     :     0.015277
      dx2y2   :     0.016605
      dxy     :     0.021926
      f0      :     0.000561  f :     0.008389
      f+1     :     0.000178
      f-1     :     0.002075
      f+2     :     0.002154
      f-2     :     0.001877
      f+3     :     0.000984
      f-3     :     0.000559
  1 O s       :     3.783849  s :     3.783849
      pz      :     1.519738  p :     4.633679
      px      :     1.896659
      py      :     1.217282
      dz2     :     0.005805  d :     0.032403
      dxz     :     0.004297
      dyz     :     0.015526
      dx2y2   :     0.004366
      dxy     :     0.002410
      f0      :     0.000107  f :     0.001824
      f+1     :     0.000062
      f-1     :     0.000197
      f+2     :     0.000659
      f-2     :     0.000167
      f+3     :     0.000202
      f-3     :     0.000429
  2 H s       :     0.639719  s :     0.639719
      pz      :     0.014676  p :     0.051703
      px      :     0.019389
      py      :     0.017638
  3 H s       :     0.892059  s :     0.892059
      pz      :     0.007162  p :     0.019594
      px      :     0.009251
      py      :     0.003181
  4 H s       :     0.863310  s :     0.863310
      pz      :     0.004417  p :     0.019953
      px      :     0.004475
      py      :     0.011062
  5 H s       :     0.881216  s :     0.881216
      pz      :     0.007361  p :     0.020954
      px      :     0.009910
      py      :     0.003683


                     *******************************
                     * LOEWDIN POPULATION ANALYSIS *
                     *******************************

----------------------
LOEWDIN ATOMIC CHARGES
----------------------
   0 C :   -0.415843
   1 O :   -0.023325
   2 H :    0.152761
   3 H :    0.092708
   4 H :    0.109450
   5 H :    0.084248

-------------------------------
LOEWDIN REDUCED ORBITAL CHARGES
-------------------------------
  0 C s       :     2.841498  s :     2.841498
      pz      :     0.988570  p :     3.057355
      px      :     1.102275
      py      :     0.966510
      dz2     :     0.064970  d :     0.450538
      dxz     :     0.132147
      dyz     :     0.103699
      dx2y2   :     0.091725
      dxy     :     0.057997
      f0      :     0.008670  f :     0.066452
      f+1     :     0.002121
      f-1     :     0.015684
      f+2     :     0.009915
      f-2     :     0.013718
      f+3     :     0.010595
      f-3     :     0.005749
  1 O s       :     3.324586  s :     3.324586
      pz      :     1.568704  p :     4.612593
      px      :     1.773218
      py      :     1.270671
      dz2     :     0.013298  d :     0.080412
      dxz     :     0.008662
      dyz     :     0.033964
      dx2y2   :     0.014798
      dxy     :     0.009690
      f0      :     0.000688  f :     0.005734
      f+1     :     0.000176
      f-1     :     0.001491
      f+2     :     0.001449
      f-2     :     0.000839
      f+3     :     0.000395
      f-3     :     0.000695
  2 H s       :     0.674364  s :     0.674364
      pz      :     0.059396  p :     0.172875
      px      :     0.053747
      py      :     0.059731
  3 H s       :     0.848312  s :     0.848312
      pz      :     0.020746  p :     0.058980
      px      :     0.027393
      py      :     0.010841
  4 H s       :     0.831905  s :     0.831905
      pz      :     0.014183  p :     0.058645
      px      :     0.013531
      py      :     0.030931
  5 H s       :     0.848679  s :     0.848679
      pz      :     0.022482  p :     0.067073
      px      :     0.031350
      py      :     0.013241


                      *****************************
                      * MAYER POPULATION ANALYSIS *
                      *****************************

  NA   - Mulliken gross atomic population
  ZA   - Total nuclear charge
  QA   - Mulliken gross atomic charge
  VA   - Mayer's total valence
  BVA  - Mayer's bonded valence
  FA   - Mayer's free valence

  ATOM       NA         ZA         QA         VA         BVA        FA
  0 C      6.1597     6.0000    -0.1597     3.9484     3.9484    -0.0000
  1 O      8.4518     8.0000    -0.4518     1.8928     1.8928     0.0000
  2 H      0.6914     1.0000     0.3086     0.9180     0.9180    -0.0000
  3 H      0.9117     1.0000     0.0883     0.9597     0.9597    -0.0000
  4 H      0.8833     1.0000     0.1167     0.9607     0.9607    -0.0000
  5 H      0.9022     1.0000     0.0978     0.9583     0.9583    -0.0000

  Mayer bond orders larger than 0.1
B(  0-C ,  1-O ) :   0.9979 B(  0-C ,  3-H ) :   0.9845 B(  0-C ,  4-H ) :   0.9709 
B(  0-C ,  5-H ) :   0.9852 B(  1-O ,  2-H ) :   0.9077 


------------------
HIRSHFELD ANALYSIS
------------------

Total integrated alpha density =      8.999739775
Total integrated beta density  =      8.999739775

  ATOM     CHARGE      SPIN    
   0 C    0.005832    0.000000
   1 O   -0.244122    0.000000
   2 H    0.161374    0.000000
   3 H    0.016223    0.000000
   4 H    0.042228    0.000000
   5 H    0.018986    0.000000

  TOTAL   0.000520    0.000000

-------
TIMINGS
-------

Total SCF time: 0 days 0 hours 0 min 26 sec 

Total time                  ....      26.690 sec
Sum of individual times     ....      22.825 sec  ( 85.5%)

Fock matrix formation       ....      17.242 sec  ( 64.6%)
  XC integration            ....       4.165 sec  ( 24.2% of F)
    Basis function eval.    ....       0.038 sec  (  0.9% of XC)
    Density eval.           ....       0.048 sec  (  1.2% of XC)
    XC-Functional eval.     ....       0.082 sec  (  2.0% of XC)
    XC-Potential eval.      ....       0.035 sec  (  0.8% of XC)
Diagonalization             ....       0.562 sec  (  2.1%)
Density matrix formation    ....       1.983 sec  (  7.4%)
Population analysis         ....       0.172 sec  (  0.6%)
Initial guess               ....       0.382 sec  (  1.4%)
Orbital Transformation      ....       0.000 sec  (  0.0%)
Orbital Orthonormalization  ....       0.000 sec  (  0.0%)
DIIS solution               ....       0.338 sec  (  1.3%)
SOSCF solution              ....       0.489 sec  (  1.8%)
Grid generation             ....       1.657 sec  (  6.2%)


-------------------------------------------------------------------------------
                          DFT DISPERSION CORRECTION                            
                                                                               
                              DFTD3 V3.1  Rev 1                                
                              USING zero damping                               
-------------------------------------------------------------------------------
The omegaB97X-D3 functional is recognized. Fit by Chai et al.
Active option DFTDOPT                   ...         3   

molecular C6(AA) [au] = 208.562817 


            DFT-D V3
 parameters
 s6 scaling factor         :     1.0000 
 rs6 scaling factor        :     1.2810 
 s8 scaling factor         :     1.0000 
 rs8 scaling factor        :     1.0940 
 Damping factor alpha6     :    14.0000 
 Damping factor alpha8     :    16.0000 
 ad hoc parameters k1-k3   :    16.0000     1.3333    -4.0000 

 Edisp/kcal,au: -0.122724722319  -0.000195574273 
 E6   /kcal   :  -0.024316335 
 E8   /kcal   :  -0.098408388 
 % E8         :  80.186278636 

-------------------------   ----------------
Dispersion correction           -0.000195574
-------------------------   ----------------


-------------------------   --------------------
FINAL SINGLE POINT ENERGY      -115.730490097003
-------------------------   --------------------


                            ***************************************
                            *     ORCA property calculations      *
                            ***************************************

                                    ---------------------
                                    Active property flags
                                    ---------------------
   (+) Dipole Moment


------------------------------------------------------------------------------
                       ORCA ELECTRIC PROPERTIES CALCULATION
------------------------------------------------------------------------------

Dipole Moment Calculation                       ... on
Quadrupole Moment Calculation                   ... off
Polarizability Calculation                      ... off
GBWName                                         ... 77_charges.gbw
Electron density file                           ... 77_charges.scfp.tmp
The origin for moment calculation is the CENTER OF MASS  = (10.023805, -6.191678 -13.698208)

-------------
DIPOLE MOMENT
-------------
                                X             Y             Z
Electronic contribution:     -0.08976      -1.24744      -1.39359
Nuclear contribution   :      0.04976       1.14507       2.06104
                        -----------------------------------------
Total Dipole Moment    :     -0.03999      -0.10237       0.66745
                        -----------------------------------------
Magnitude (a.u.)       :      0.67643
Magnitude (Debye)      :      1.71936



--------------------
Rotational spectrum 
--------------------
 
Rotational constants in cm-1:     4.456049     0.890259     0.849908 
Rotational constants in MHz : 133588.990178 26689.288681 25479.607224 

 Dipole components along the rotational axes: 
x,y,z [a.u.] :     0.325155     0.592680     0.023811 
x,y,z [Debye]:     0.826477     1.506474     0.060524 

 
------------------------------------------------------------------------------
                      ORCA CHELPG CHARGES GENERATION
------------------------------------------------------------------------------

GBW file                           ... 77_charges.gbw

Reading the GBW file               ... done

Grid spacing                       ...     0.300000
Point Cut-Off                      ...     2.800000
Van-der-Waals Radii                ...        COSMO
Total charge                       ...            0


Number of points X direction       ...           24
Number of points Y direction       ...           27
Number of points Z direction       ...           23
Maximum number of possible points  ...        14904
Final number of points             ...         5750


CHELPG Charges            
--------------------------------
  0   C   :       0.215162
  1   O   :      -0.636087
  2   H   :       0.421800
  3   H   :      -0.027889
  4   H   :       0.047477
  5   H   :      -0.020464
--------------------------------
Total charge:     0.000000
--------------------------------

CHELPG charges calculated...

Timings for individual parts in CHELPG calculation:
Grid generation                 ...        0.001 sec (=   0.000 min)
Potential calculation           ...        0.670 sec (=   0.011 min)
Fit to the potential            ...        0.001 sec (=   0.000 min)
------------------------------------------------------------------------------


Timings for individual modules:

Sum of individual times         ...       37.841 sec (=   0.631 min)
GTO integral calculation        ...        5.120 sec (=   0.085 min)  13.5 %
SCF iterations                  ...       32.014 sec (=   0.534 min)  84.6 %
CHELPG charge generation        ...        0.706 sec (=   0.012 min)   1.9 %
                             ****ORCA TERMINATED NORMALLY****
TOTAL RUN TIME: 0 days 0 hours 0 minutes 39 seconds 797 msec
