
                                 *****************
                                 * O   R   C   A *
                                 *****************

           --- An Ab Initio, DFT and Semiempirical electronic structure package ---

                  #######################################################
                  #                        -***-                        #
                  #          Department of theory and spectroscopy      #
                  #               Directorship: Frank Neese             #
                  #        Max Planck Institute fuer Kohlenforschung    #
                  #                Kaiser Wilhelm Platz 1               #
                  #                 D-45470 Muelheim/Ruhr               #
                  #                      Germany                        #
                  #                                                     #
                  #                  All rights reserved                #
                  #                        -***-                        #
                  #######################################################


                         Program Version 4.1.2  - RELEASE  -


 With contributions from (in alphabetic order):
   Daniel Aravena         : Magnetic Properties
   Michael Atanasov       : Ab Initio Ligand Field Theory
   Alexander A. Auer      : GIAO ZORA
   Ute Becker             : Parallelization
   Giovanni Bistoni       : ED, Open-shell LED
   Martin Brehm           : Molecular dynamics
   Dmytro Bykov           : SCF Hessian
   Vijay G. Chilkuri      : MRCI spin determinant printing
   Dipayan Datta          : RHF DLPNO-CCSD density
   Achintya Kumar Dutta   : EOM-CC, STEOM-CC
   Dmitry Ganyushin       : Spin-Orbit,Spin-Spin,Magnetic field MRCI
   Miquel Garcia          : C-PCM Hessian
   Yang Guo               : DLPNO-NEVPT2, CIM, IAO-localization
   Andreas Hansen         : Spin unrestricted coupled pair/coupled cluster methods
   Benjamin Helmich-Paris : CASSCF linear response (MC-RPA)
   Lee Huntington         : MR-EOM, pCC
   Robert Izsak           : Overlap fitted RIJCOSX, COSX-SCS-MP3, EOM
   Christian Kollmar      : KDIIS, OOCD, Brueckner-CCSD(T), CCSD density
   Simone Kossmann        : Meta GGA functionals, TD-DFT gradient, OOMP2, MP2 Hessian
   Martin Krupicka        : AUTO-CI
   Lucas Lang             : DCDCAS
   Dagmar Lenk            : GEPOL surface, SMD
   Dimitrios Liakos       : Extrapolation schemes; parallel MDCI
   Dimitrios Manganas     : ROCIS; embedding schemes
   Dimitrios Pantazis     : SARC Basis sets
   Taras Petrenko         : DFT Hessian,TD-DFT gradient, ASA, ECA, R-Raman, ABS, FL, XAS/XES, NRVS
   Peter Pinski           : DLPNO-MP2, DLPNO-MP2 Gradient
   Christoph Reimann      : Effective Core Potentials
   Marius Retegan         : Local ZFS, SOC
   Christoph Riplinger    : Optimizer, TS searches, QM/MM, DLPNO-CCSD(T), (RO)-DLPNO pert. Triples
   Tobias Risthaus        : Range-separated hybrids, TD-DFT gradient, RPA, STAB
   Michael Roemelt        : Restricted open shell CIS
   Masaaki Saitow         : Open-shell DLPNO
   Barbara Sandhoefer     : DKH picture change effects
   Avijit Sen             : IP-ROCIS
   Kantharuban Sivalingam : CASSCF convergence, NEVPT2, FIC-MRCI
   Bernardo de Souza      : ESD, SOC TD-DFT
   Georgi Stoychev        : AutoAux, RI-MP2 NMR
   Willem Van den Heuvel  : Paramagnetic NMR
   Boris Wezisla          : Elementary symmetry handling
   Frank Wennmohs         : Technical directorship


 We gratefully acknowledge several colleagues who have allowed us to
 interface, adapt or use parts of their codes:
   Stefan Grimme, W. Hujo, H. Kruse,             : VdW corrections, initial TS optimization,
                  C. Bannwarth                     DFT functionals, gCP, sTDA/sTD-DF
   Ed Valeev                                     : LibInt (2-el integral package), F12 methods
   Garnet Chan, S. Sharma, J. Yang, R. Olivares  : DMRG
   Ulf Ekstrom                                   : XCFun DFT Library
   Mihaly Kallay                                 : mrcc  (arbitrary order and MRCC methods)
   Andreas Klamt, Michael Diedenhofen            : otool_cosmo (COSMO solvation model)
   Jiri Pittner, Ondrej Demel                    : Mk-CCSD
   Frank Weinhold                                : gennbo (NPA and NBO analysis)
   Christopher J. Cramer and Donald G. Truhlar   : smd solvation model
   Lars Goerigk                                  : TD-DFT with DH, B97 family of functionals
   V. Asgeirsson, H. Jonsson                     : NEB implementation
   FAccTs GmbH                                   : IRC, NEB, NEB-TS, Multilevel


 Your calculation uses the libint2 library for the computation of 2-el integrals
 For citations please refer to: http://libint.valeyev.net

 This ORCA versions uses:
   CBLAS   interface :  Fast vector & matrix operations
   LAPACKE interface :  Fast linear algebra routines
   SCALAPACK package :  Parallel linear algebra routines


Your calculation utilizes the atom-pairwise dispersion correction
with the zero-damping scheme (D30)
Cite in your paper:
S.Grimme, J.Antony, S.Ehrlich and H.Krieg, J.Chem.Phys., 132, (2010), 154104 
   

XCFun DFT library Copyright 2009-2010 Ulf Ekstrom and contributors.
See http://admol.org/xcfun for more information. This is free soft-
ware; see the source code for copying conditions. There is ABSOLUTELY
NO WARRANTY; not even for MERCHANTABILITY or FITNESS FOR A PARTICULAR
PURPOSE. For details see the documentation. Scientific users of this 
library should cite U. Ekstrom, L. Visscher, R. Bast, A. J. Thorvald-
sen and K. Ruud; J.Chem.Theor.Comp. 2010, DOI: 10.1021/ct100117s
XCFun Version 0.99 
----- Orbital basis set information -----
Your calculation utilizes the basis: def2-TZVP
   F. Weigend and R. Ahlrichs, Phys. Chem. Chem. Phys. 7, 3297 (2005).

================================================================================
                                        WARNINGS
                       Please study these warnings very carefully!
================================================================================


WARNING: Geometry Optimization
  ===> : Switching off AutoStart
         For restart on a previous wavefunction, please use MOREAD

INFO   : the flag for use of LIBINT has been found!

================================================================================
                                       INPUT FILE
================================================================================
NAME = bonds_angles_[6[8[1]][1][1][1]]-[8[6[1][1][1]][1]]_3.in
|  1> #Run DFT geometry optimization
|  2> ! wB97X-D3 def2-TZVP TIGHTSCF Grid5 FinalGrid6 Opt CHELPG PAL4
|  3> 
|  4> %base "3_geo_opt"
|  5> %geom MaxIter 500
|  6> end
|  7> 
|  8> %geom
|  9>   Constraints
| 10>     { B 0 1 C }
| 11>   end
| 12> end
| 13> 
| 14> 
| 15> * xyz 0 1
| 16>   C                    3.011112             -1.180905            0.598453            
| 17>   O                    4.394869             -1.128043            0.874347            
| 18>   H                    4.772392             -0.379014            0.412532            
| 19>   H                    2.806238             -1.318972            -0.469389           
| 20>   H                    2.611436             -2.040272            1.135859            
| 21>   H                    2.484561             -0.284499            0.945620            
| 22> *
| 23> 
| 24>                          ****END OF INPUT****
================================================================================

                       *****************************
                       * Geometry Optimization Run *
                       *****************************

Geometry optimization settings:
Update method            Update   .... BFGS
Choice of coordinates    CoordSys .... Z-matrix Internals
Initial Hessian          InHess   .... Almoef's Model

Convergence Tolerances:
Energy Change            TolE     ....  5.0000e-06 Eh
Max. Gradient            TolMAXG  ....  3.0000e-04 Eh/bohr
RMS Gradient             TolRMSG  ....  1.0000e-04 Eh/bohr
Max. Displacement        TolMAXD  ....  4.0000e-03 bohr
RMS Displacement         TolRMSD  ....  2.0000e-03 bohr

------------------------------------------------------------------------------
                        ORCA OPTIMIZATION COORDINATE SETUP
------------------------------------------------------------------------------

The optimization will be done in new redundant internal coordinates
Making redundant internal coordinates   ...  (new redundants) done
Evaluating the initial hessian          ...  (Almloef) done
Evaluating the coordinates              ...  done
Calculating the B-matrix                .... done
Calculating the G-matrix                .... done
Diagonalizing the G-matrix              .... done
Imposing constraints:
 Iter   0:  RMS(Cart)=    0.0000000000 RMS(Int)=    0.0000000000
CONVERGED
The first mode is                       ....    3
The number of degrees of freedom        ....   12
Storing new coordinates                 .... done

    -----------------------------------------------------------------
                    Redundant Internal Coordinates


    -----------------------------------------------------------------
         Definition                    Initial Value    Approx d2E/dq
    -----------------------------------------------------------------
      1. B(O   1,C   0)                  1.4120         0.516183 C 
      2. B(H   2,O   1)                  0.9575         0.524718   
      3. B(H   3,C   0)                  1.0960         0.352187   
      4. B(H   4,C   0)                  1.0895         0.360733   
      5. B(H   5,C   0)                  1.0960         0.352185   
      6. A(O   1,C   0,H   4)          107.0169         0.340203   
      7. A(O   1,C   0,H   3)          112.2263         0.338843   
      8. A(O   1,C   0,H   5)          112.2282         0.338843   
      9. A(H   3,C   0,H   5)          108.7729         0.288819   
     10. A(H   4,C   0,H   5)          108.2172         0.289907   
     11. A(H   3,C   0,H   4)          108.2177         0.289907   
     12. A(C   0,O   1,H   2)          108.7499         0.359251   
     13. D(H   2,O   1,C   0,H   5)    -61.4304         0.021112   
     14. D(H   2,O   1,C   0,H   3)     61.4271         0.021112   
     15. D(H   2,O   1,C   0,H   4)    179.9981         0.021112   
    -----------------------------------------------------------------

Number of atoms                         .... 6
Number of degrees of freedom            .... 15

         *************************************************************
         *                GEOMETRY OPTIMIZATION CYCLE   1            *
         *************************************************************
---------------------------------
CARTESIAN COORDINATES (ANGSTROEM)
---------------------------------
  C      3.011112   -1.180905    0.598453
  O      4.394869   -1.128043    0.874347
  H      4.772392   -0.379014    0.412532
  H      2.806238   -1.318972   -0.469389
  H      2.611436   -2.040272    1.135859
  H      2.484561   -0.284499    0.945620

----------------------------
CARTESIAN COORDINATES (A.U.)
----------------------------
  NO LB      ZA    FRAG     MASS         X           Y           Z
   0 C     6.0000    0    12.011    5.690177   -2.231587    1.130912
   1 O     8.0000    0    15.999    8.305099   -2.131692    1.652276
   2 H     1.0000    0     1.008    9.018514   -0.716233    0.779573
   3 H     1.0000    0     1.008    5.303021   -2.492496   -0.887017
   4 H     1.0000    0     1.008    4.934899   -3.855555    2.146462
   5 H     1.0000    0     1.008    4.695140   -0.537625    1.786963

--------------------------------
INTERNAL COORDINATES (ANGSTROEM)
--------------------------------
 C      0   0   0     0.000000000000     0.00000000     0.00000000
 O      1   0   0     1.411982763821     0.00000000     0.00000000
 H      2   1   0     0.957518225725   108.74988218     0.00000000
 H      1   2   3     1.096048534203   112.22633394    61.42706538
 H      1   2   3     1.089521800838   107.01693020   179.99809232
 H      1   2   3     1.096049541912   112.22815198   298.56958415

---------------------------
INTERNAL COORDINATES (A.U.)
---------------------------
 C      0   0   0     0.000000000000     0.00000000     0.00000000
 O      1   0   0     2.668260729440     0.00000000     0.00000000
 H      2   1   0     1.809447214858   108.74988218     0.00000000
 H      1   2   3     2.071231559130   112.22633394    61.42706538
 H      1   2   3     2.058897820520   107.01693020   179.99809232
 H      1   2   3     2.071233463424   112.22815198   298.56958415

---------------------
BASIS SET INFORMATION
---------------------
There are 3 groups of distinct atoms

 Group   1 Type C   : 11s6p2d1f contracted to 5s3p2d1f pattern {62111/411/11/1}
 Group   2 Type O   : 11s6p2d1f contracted to 5s3p2d1f pattern {62111/411/11/1}
 Group   3 Type H   : 5s1p contracted to 3s1p pattern {311/1}

Atom   0C    basis set group =>   1
Atom   1O    basis set group =>   2
Atom   2H    basis set group =>   3
Atom   3H    basis set group =>   3
Atom   4H    basis set group =>   3
Atom   5H    basis set group =>   3


           ************************************************************
           *        Program running with 4 parallel MPI-processes     *
           *              working on a common directory               *
           ************************************************************
------------------------------------------------------------------------------
                           ORCA GTO INTEGRAL CALCULATION
------------------------------------------------------------------------------

                         BASIS SET STATISTICS AND STARTUP INFO

 # of primitive gaussian shells          ...   64
 # of primitive gaussian functions       ...  124
 # of contracted shells                  ...   38
 # of contracted basis functions         ...   86
 Highest angular momentum                ...    3
 Maximum contraction depth               ...    6
 Integral package used                   ... LIBINT
 Integral threshhold            Thresh   ...  2.500e-11
 Primitive cut-off              TCut     ...  2.500e-12


------------------------------ INTEGRAL EVALUATION ----------------------------


 * One electron integrals 
 Pre-screening matrix                    ... done
 Shell pair data                         ... done (   0.000 sec)



           ************************************************************
           *        Program running with 4 parallel MPI-processes     *
           *              working on a common directory               *
           ************************************************************
-------------------------------------------------------------------------------
                                 ORCA SCF
-------------------------------------------------------------------------------

------------
SCF SETTINGS
------------
Hamiltonian:
 Density Functional     Method          .... DFT(GTOs)
 Exchange Functional    Exchange        .... WB97X-D3
 Correlation Functional Correlation     .... WB97X-D3
 Gradients option       PostSCFGGA      .... off
 Hybrid DFT is turned on
   Fraction HF Exchange ScalHFX         ....  0.195728
   Scaling of DF-GGA-X  ScalDFX         ....  0.000000
   Scaling of DF-GGA-C  ScalDFC         ....  1.000000
   Scaling of DF-LDA-C  ScalLDAC        ....  1.000000
   Perturbative correction              ....  0.000000
   Density functional embedding theory  .... OFF
 Long-range corrected/Screened/Range-Separated Hybrid DFT is turned on
   Amount of maximum screened exact exchange              ....  0.804272
   Range separation parameter mu (erf(mu*r12)/r12)        ....  0.250000


General Settings:
 Integral files         IntName         .... 3_geo_opt
 Hartree-Fock type      HFTyp           .... RHF
 Total Charge           Charge          ....    0
 Multiplicity           Mult            ....    1
 Number of Electrons    NEL             ....   18
 Basis Dimension        Dim             ....   86
 Nuclear Repulsion      ENuc            ....     40.4316571056 Eh

Convergence Acceleration:
 DIIS                   CNVDIIS         .... on
   Start iteration      DIISMaxIt       ....    12
   Startup error        DIISStart       ....  0.200000
   # of expansion vecs  DIISMaxEq       ....     5
   Bias factor          DIISBfac        ....   1.050
   Max. coefficient     DIISMaxC        ....  10.000
 Newton-Raphson         CNVNR           .... off
 SOSCF                  CNVSOSCF        .... on
   Start iteration      SOSCFMaxIt      ....   150
   Startup grad/error   SOSCFStart      ....  0.003300
 Level Shifting         CNVShift        .... on
   Level shift para.    LevelShift      ....    0.2500
   Turn off err/grad.   ShiftErr        ....    0.0010
 Zerner damping         CNVZerner       .... off
 Static damping         CNVDamp         .... on
   Fraction old density DampFac         ....    0.7000
   Max. Damping (<1)    DampMax         ....    0.9800
   Min. Damping (>=0)   DampMin         ....    0.0000
   Turn off err/grad.   DampErr         ....    0.1000
 Fernandez-Rico         CNVRico         .... off

SCF Procedure:
 Maximum # iterations   MaxIter         ....   125
 SCF integral mode      SCFMode         .... Direct
   Integral package                     .... LIBINT
 Reset frequency        DirectResetFreq ....    20
 Integral Threshold     Thresh          ....  2.500e-11 Eh
 Primitive CutOff       TCut            ....  2.500e-12 Eh

Convergence Tolerance:
 Convergence Check Mode ConvCheckMode   .... Total+1el-Energy
 Convergence forced     ConvForced      .... 0
 Energy Change          TolE            ....  1.000e-08 Eh
 1-El. energy change                    ....  1.000e-05 Eh
 Orbital Gradient       TolG            ....  1.000e-05
 Orbital Rotation angle TolX            ....  1.000e-05
 DIIS Error             TolErr          ....  5.000e-07


Diagonalization of the overlap matrix:
Smallest eigenvalue                        ... 1.650e-03
Time for diagonalization                   ...    0.236 sec
Threshold for overlap eigenvalues          ... 1.000e-08
Number of eigenvalues below threshold      ... 0
Time for construction of square roots      ...    0.005 sec
Total time needed                          ...    0.242 sec

-------------------
DFT GRID GENERATION
-------------------

General Integration Accuracy     IntAcc      ...  5.010
Radial Grid Type                 RadialGrid  ... Gauss-Chebyshev
Angular Grid (max. acc.)         AngularGrid ... Lebedev-434
Angular grid pruning method      GridPruning ... 3 (G Style)
Weight generation scheme         WeightScheme... Becke
Basis function cutoff            BFCut       ...    1.0000e-11
Integration weight cutoff        WCut        ...    1.0000e-14
Grids for H and He will be reduced by one unit

# of grid points (after initial pruning)     ...  48308 (   0.0 sec)
# of grid points (after weights+screening)   ...  46676 (   0.0 sec)
nearest neighbour list constructed           ...    0.0 sec
Grid point re-assignment to atoms done       ...    0.0 sec
Grid point division into batches done        ...    0.3 sec
Reduced shell lists constructed in    0.3 sec

Total number of grid points                  ...    46676
Total number of batches                      ...      733
Average number of points per batch           ...       63
Average number of grid points per atom       ...     7779
Average number of shells per batch           ...    33.14 (87.21%)
Average number of basis functions per batch  ...    76.85 (89.36%)
Average number of large shells per batch     ...    30.61 (92.35%)
Average number of large basis fcns per batch ...    72.30 (94.08%)
Maximum spatial batch extension              ...  15.76, 14.99, 16.58 au
Average spatial batch extension              ...   0.40,  0.41,  0.42 au

Time for grid setup =    0.397 sec

------------------------------
INITIAL GUESS: MODEL POTENTIAL
------------------------------
Loading Hartree-Fock densities                     ... done
Calculating cut-offs                               ... done
Setting up the integral package                    ... done
Initializing the effective Hamiltonian             ... done
Starting the Coulomb interaction                   ... done (   0.0 sec)
Reading the grid                                   ... done
Mapping shells                                     ... done
Starting the XC term evaluation                    ... done (   0.1 sec)
  promolecular density results
     # of electrons  =     17.998045194
     EX              =    -14.430157310
     EC              =     -0.575098316
     EX+EC           =    -15.005255625
Transforming the Hamiltonian                       ... done (   0.0 sec)
Diagonalizing the Hamiltonian                      ... done (   0.0 sec)
Back transforming the eigenvectors                 ... done (   0.0 sec)
Now organizing SCF variables                       ... done
                      ------------------
                      INITIAL GUESS DONE (   0.6 sec)
                      ------------------
--------------
SCF ITERATIONS
--------------
ITER       Energy         Delta-E        Max-DP      RMS-DP      [F,P]     Damp
               ***  Starting incremental Fock matrix formation  ***
  0   -115.6512355967   0.000000000000 0.03696332  0.00147445  0.2523538 0.7000
  1   -115.6882918702  -0.037056273488 0.02202648  0.00104061  0.1262457 0.7000
                               ***Turning on DIIS***
  2   -115.7053504762  -0.017058606019 0.03155702  0.00188075  0.0490906 0.0000
  3   -115.7330789344  -0.027728458159 0.01774086  0.00068021  0.0611268 0.0000
  4   -115.7376012857  -0.004522351327 0.00406491  0.00013179  0.0065602 0.0000
                      *** Initiating the SOSCF procedure ***
                           *** Shutting down DIIS ***
                      *** Re-Reading the Fockian *** 
                      *** Removing any level shift *** 
ITER      Energy       Delta-E        Grad      Rot      Max-DP    RMS-DP
  5   -115.73769545  -0.0000941690  0.000489  0.000489  0.000678  0.000043
               *** Restarting incremental Fock matrix formation ***
  6   -115.73770359  -0.0000081393  0.000152  0.000203  0.000490  0.000026
  7   -115.73770432  -0.0000007223  0.000056  0.000109  0.000208  0.000011
  8   -115.73770437  -0.0000000575  0.000019  0.000017  0.000030  0.000001
  9   -115.73770438  -0.0000000055  0.000011  0.000008  0.000015  0.000001
 10   -115.73770438  -0.0000000015  0.000003  0.000003  0.000003  0.000000
                  ***Gradient check signals convergence***
              ***Rediagonalizing the Fockian in SOSCF/NRSCF***

               *****************************************************
               *                     SUCCESS                       *
               *           SCF CONVERGED AFTER  11 CYCLES          *
               *****************************************************

Setting up the final grid:

General Integration Accuracy     IntAcc      ...  5.340
Radial Grid Type                 RadialGrid  ... Gauss-Chebyshev
Angular Grid (max. acc.)         AngularGrid ... Lebedev-590
Angular grid pruning method      GridPruning ... 3 (G Style)
Weight generation scheme         WeightScheme... Becke
Basis function cutoff            BFCut       ...    1.0000e-11
Integration weight cutoff        WCut        ...    1.0000e-14
Grids for H and He will be reduced by one unit

# of grid points (after initial pruning)     ...  77324 (   0.0 sec)
# of grid points (after weights+screening)   ...  74512 (   0.0 sec)
nearest neighbour list constructed           ...    0.0 sec
Grid point re-assignment to atoms done       ...    0.0 sec
Grid point division into batches done        ...    0.8 sec
Reduced shell lists constructed in    0.8 sec

Total number of grid points                  ...    74512
Total number of batches                      ...     1167
Average number of points per batch           ...       63
Average number of grid points per atom       ...    12419
Average number of shells per batch           ...    32.92 (86.64%)
Average number of basis functions per batch  ...    76.34 (88.77%)
Average number of large shells per batch     ...    30.30 (92.04%)
Average number of large basis fcns per batch ...    71.51 (93.67%)
Maximum spatial batch extension              ...  13.18, 14.25, 15.48 au
Average spatial batch extension              ...   0.34,  0.36,  0.37 au

Final grid set up in    0.9 sec
Final integration                            ... done (   0.2 sec)
Change in XC energy                          ...    -0.000107392
Integrated number of electrons               ...    18.000000746
Previous integrated no of electrons          ...    18.000002282

----------------
TOTAL SCF ENERGY
----------------

Total Energy       :         -115.73781177 Eh           -3149.38597 eV

Components:
Nuclear Repulsion  :           40.43165711 Eh            1100.20132 eV
Electronic Energy  :         -156.16946888 Eh           -4249.58729 eV
One Electron Energy:         -237.28302274 Eh           -6456.79931 eV
Two Electron Energy:           81.11355386 Eh            2207.21201 eV

Virial components:
Potential Energy   :         -230.98762215 Eh           -6285.49275 eV
Kinetic Energy     :          115.24981038 Eh            3136.10678 eV
Virial Ratio       :            2.00423429


DFT components:
N(Alpha)           :        9.000000373034 electrons
N(Beta)            :        9.000000373034 electrons
N(Total)           :       18.000000746068 electrons
E(XC)              :      -10.655454181633 Eh       
DFET-embed. en.    :        0.000000000000 Eh       

---------------
SCF CONVERGENCE
---------------

  Last Energy change         ...   -7.8799e-11  Tolerance :   1.0000e-08
  Last MAX-Density change    ...    1.8497e-06  Tolerance :   1.0000e-07
  Last RMS-Density change    ...    7.8708e-08  Tolerance :   5.0000e-09
  Last Orbital Gradient      ...    1.3496e-06  Tolerance :   1.0000e-05
  Last Orbital Rotation      ...    7.7985e-07  Tolerance :   1.0000e-05

             **** THE GBW FILE WAS UPDATED (3_geo_opt.gbw) ****
             **** DENSITY FILE WAS UPDATED (3_geo_opt.scfp.tmp) ****
             **** ENERGY FILE WAS UPDATED (3_geo_opt.en.tmp) ****
----------------
ORBITAL ENERGIES
----------------

  NO   OCC          E(Eh)            E(eV) 
   0   2.0000     -19.228087      -523.2229 
   1   2.0000     -10.315155      -280.6896 
   2   2.0000      -1.136673       -30.9305 
   3   2.0000      -0.795362       -21.6429 
   4   2.0000      -0.611518       -16.6402 
   5   2.0000      -0.541729       -14.7412 
   6   2.0000      -0.526272       -14.3206 
   7   2.0000      -0.433829       -11.8051 
   8   2.0000      -0.373628       -10.1669 
   9   0.0000       0.116644         3.1740 
  10   0.0000       0.156644         4.2625 
  11   0.0000       0.202559         5.5119 
  12   0.0000       0.205103         5.5811 
  13   0.0000       0.226329         6.1587 
  14   0.0000       0.304328         8.2812 
  15   0.0000       0.313366         8.5271 
  16   0.0000       0.404331        11.0024 
  17   0.0000       0.452577        12.3152 
  18   0.0000       0.484993        13.1973 
  19   0.0000       0.535856        14.5814 
  20   0.0000       0.543658        14.7937 
  21   0.0000       0.567625        15.4459 
  22   0.0000       0.598541        16.2871 
  23   0.0000       0.603462        16.4210 
  24   0.0000       0.671327        18.2677 
  25   0.0000       0.778963        21.1967 
  26   0.0000       0.832160        22.6442 
  27   0.0000       0.861302        23.4372 
  28   0.0000       0.989595        26.9282 
  29   0.0000       1.013921        27.5902 
  30   0.0000       1.109632        30.1946 
  31   0.0000       1.382634        37.6234 
  32   0.0000       1.512893        41.1679 
  33   0.0000       1.553491        42.2726 
  34   0.0000       1.602790        43.6141 
  35   0.0000       1.612954        43.8907 
  36   0.0000       1.624136        44.1950 
  37   0.0000       1.660503        45.1846 
  38   0.0000       1.687841        45.9285 
  39   0.0000       1.774636        48.2903 
  40   0.0000       1.952093        53.1192 
  41   0.0000       2.030697        55.2581 
  42   0.0000       2.055175        55.9242 
  43   0.0000       2.094115        56.9838 
  44   0.0000       2.114564        57.5402 
  45   0.0000       2.268470        61.7282 
  46   0.0000       2.333257        63.4912 
  47   0.0000       2.345600        63.8270 
  48   0.0000       2.380876        64.7869 
  49   0.0000       2.429443        66.1085 
  50   0.0000       2.497574        67.9624 
  51   0.0000       2.596262        70.6479 
  52   0.0000       2.639889        71.8350 
  53   0.0000       2.707147        73.6652 
  54   0.0000       2.841777        77.3287 
  55   0.0000       2.871130        78.1274 
  56   0.0000       2.888335        78.5956 
  57   0.0000       2.992791        81.4380 
  58   0.0000       3.095967        84.2455 
  59   0.0000       3.172814        86.3367 
  60   0.0000       3.299017        89.7708 
  61   0.0000       3.408364        92.7463 
  62   0.0000       3.441643        93.6519 
  63   0.0000       3.488153        94.9175 
  64   0.0000       3.612073        98.2895 
  65   0.0000       3.645132        99.1891 
  66   0.0000       3.666901        99.7815 
  67   0.0000       4.005407       108.9927 
  68   0.0000       4.223807       114.9356 
  69   0.0000       4.273352       116.2838 
  70   0.0000       4.455864       121.2502 
  71   0.0000       4.564472       124.2056 
  72   0.0000       5.345915       145.4697 
  73   0.0000       5.425144       147.6257 
  74   0.0000       5.554244       151.1387 
  75   0.0000       5.825435       158.5181 
  76   0.0000       5.833666       158.7421 
  77   0.0000       5.984995       162.8600 
  78   0.0000       6.379463       173.5940 
  79   0.0000       6.530850       177.7135 
  80   0.0000       6.744925       183.5387 
  81   0.0000       6.803752       185.1395 
  82   0.0000       7.039416       191.5522 
  83   0.0000       7.215719       196.3497 
  84   0.0000      22.405070       609.6730 
  85   0.0000      43.664084      1188.1601 

                    ********************************
                    * MULLIKEN POPULATION ANALYSIS *
                    ********************************

-----------------------
MULLIKEN ATOMIC CHARGES
-----------------------
   0 C :   -0.150943
   1 O :   -0.477716
   2 H :    0.312995
   3 H :    0.098693
   4 H :    0.118274
   5 H :    0.098697
Sum of atomic charges:   -0.0000000

--------------------------------
MULLIKEN REDUCED ORBITAL CHARGES
--------------------------------
  0 C s       :     3.223173  s :     3.223173
      pz      :     1.047299  p :     2.826165
      px      :     0.702200
      py      :     1.076666
      dz2     :     0.011106  d :     0.094192
      dxz     :     0.032467
      dyz     :     0.002645
      dx2y2   :     0.012741
      dxy     :     0.035233
      f0      :     0.001355  f :     0.007413
      f+1     :     0.000955
      f-1     :     0.000175
      f+2     :     0.001462
      f-2     :     0.000123
      f+3     :     0.001360
      f-3     :     0.001983
  1 O s       :     3.792834  s :     3.792834
      pz      :     1.759453  p :     4.652637
      px      :     1.313575
      py      :     1.579609
      dz2     :     0.003134  d :     0.030560
      dxz     :     0.006472
      dyz     :     0.005834
      dx2y2   :     0.008934
      dxy     :     0.006186
      f0      :     0.000269  f :     0.001684
      f+1     :     0.000233
      f-1     :     0.000087
      f+2     :     0.000287
      f-2     :     0.000235
      f+3     :     0.000367
      f-3     :     0.000206
  2 H s       :     0.639310  s :     0.639310
      pz      :     0.017007  p :     0.047695
      px      :     0.012721
      py      :     0.017967
  3 H s       :     0.881942  s :     0.881942
      pz      :     0.012072  p :     0.019365
      px      :     0.003007
      py      :     0.004286
  4 H s       :     0.861507  s :     0.861507
      pz      :     0.006297  p :     0.020219
      px      :     0.004193
      py      :     0.009729
  5 H s       :     0.881939  s :     0.881939
      pz      :     0.004930  p :     0.019364
      px      :     0.004976
      py      :     0.009458


                     *******************************
                     * LOEWDIN POPULATION ANALYSIS *
                     *******************************

----------------------
LOEWDIN ATOMIC CHARGES
----------------------
   0 C :   -0.384861
   1 O :   -0.076399
   2 H :    0.165743
   3 H :    0.093413
   4 H :    0.108692
   5 H :    0.093412

-------------------------------
LOEWDIN REDUCED ORBITAL CHARGES
-------------------------------
  0 C s       :     2.863036  s :     2.863036
      pz      :     1.096701  p :     3.052240
      px      :     0.845928
      py      :     1.109611
      dz2     :     0.072374  d :     0.412640
      dxz     :     0.113929
      dyz     :     0.020706
      dx2y2   :     0.082108
      dxy     :     0.123523
      f0      :     0.007811  f :     0.056946
      f+1     :     0.007155
      f-1     :     0.000853
      f+2     :     0.012509
      f-2     :     0.004826
      f+3     :     0.011724
      f-3     :     0.012067
  1 O s       :     3.366515  s :     3.366515
      pz      :     1.699171  p :     4.633751
      px      :     1.381075
      py      :     1.553505
      dz2     :     0.006125  d :     0.071494
      dxz     :     0.017838
      dyz     :     0.008086
      dx2y2   :     0.019328
      dxy     :     0.020117
      f0      :     0.000483  f :     0.004639
      f+1     :     0.000621
      f-1     :     0.000072
      f+2     :     0.001049
      f-2     :     0.000560
      f+3     :     0.000890
      f-3     :     0.000964
  2 H s       :     0.675163  s :     0.675163
      pz      :     0.055759  p :     0.159094
      px      :     0.033907
      py      :     0.069429
  3 H s       :     0.846757  s :     0.846757
      pz      :     0.036186  p :     0.059829
      px      :     0.009713
      py      :     0.013929
  4 H s       :     0.831708  s :     0.831708
      pz      :     0.019213  p :     0.059601
      px      :     0.011610
      py      :     0.028778
  5 H s       :     0.846759  s :     0.846759
      pz      :     0.015606  p :     0.059829
      px      :     0.015204
      py      :     0.029019


                      *****************************
                      * MAYER POPULATION ANALYSIS *
                      *****************************

  NA   - Mulliken gross atomic population
  ZA   - Total nuclear charge
  QA   - Mulliken gross atomic charge
  VA   - Mayer's total valence
  BVA  - Mayer's bonded valence
  FA   - Mayer's free valence

  ATOM       NA         ZA         QA         VA         BVA        FA
  0 C      6.1509     6.0000    -0.1509     3.9349     3.9349     0.0000
  1 O      8.4777     8.0000    -0.4777     1.8881     1.8881    -0.0000
  2 H      0.6870     1.0000     0.3130     0.9136     0.9136    -0.0000
  3 H      0.9013     1.0000     0.0987     0.9596     0.9596    -0.0000
  4 H      0.8817     1.0000     0.1183     0.9598     0.9598     0.0000
  5 H      0.9013     1.0000     0.0987     0.9596     0.9596    -0.0000

  Mayer bond orders larger than 0.1
B(  0-C ,  1-O ) :   0.9986 B(  0-C ,  3-H ) :   0.9755 B(  0-C ,  4-H ) :   0.9749 
B(  0-C ,  5-H ) :   0.9755 B(  1-O ,  2-H ) :   0.9002 

-------
TIMINGS
-------

Total SCF time: 0 days 0 hours 0 min 8 sec 

Total time                  ....       8.898 sec
Sum of individual times     ....       8.298 sec  ( 93.3%)

Fock matrix formation       ....       6.793 sec  ( 76.3%)
  XC integration            ....       1.948 sec  ( 28.7% of F)
    Basis function eval.    ....       0.422 sec  ( 21.7% of XC)
    Density eval.           ....       0.269 sec  ( 13.8% of XC)
    XC-Functional eval.     ....       0.672 sec  ( 34.5% of XC)
    XC-Potential eval.      ....       0.273 sec  ( 14.0% of XC)
Diagonalization             ....       0.017 sec  (  0.2%)
Density matrix formation    ....       0.002 sec  (  0.0%)
Population analysis         ....       0.013 sec  (  0.1%)
Initial guess               ....       0.166 sec  (  1.9%)
Orbital Transformation      ....       0.000 sec  (  0.0%)
Orbital Orthonormalization  ....       0.000 sec  (  0.0%)
DIIS solution               ....       0.010 sec  (  0.1%)
SOSCF solution              ....       0.023 sec  (  0.3%)
Grid generation             ....       1.274 sec  ( 14.3%)


-------------------------------------------------------------------------------
                          DFT DISPERSION CORRECTION                            
                                                                               
                              DFTD3 V3.1  Rev 1                                
                              USING zero damping                               
-------------------------------------------------------------------------------
The omegaB97X-D3 functional is recognized. Fit by Chai et al.
Active option DFTDOPT                   ...         3   

molecular C6(AA) [au] = 208.716207 


            DFT-D V3
 parameters
 s6 scaling factor         :     1.0000 
 rs6 scaling factor        :     1.2810 
 s8 scaling factor         :     1.0000 
 rs8 scaling factor        :     1.0940 
 Damping factor alpha6     :    14.0000 
 Damping factor alpha8     :    16.0000 
 ad hoc parameters k1-k3   :    16.0000     1.3333    -4.0000 

 Edisp/kcal,au: -0.150264705200  -0.000239462025 
 E6   /kcal   :  -0.029635157 
 E8   /kcal   :  -0.120629548 
 % E8         :  80.278031981 

-------------------------   ----------------
Dispersion correction           -0.000239462
-------------------------   ----------------


-------------------------   --------------------
FINAL SINGLE POINT ENERGY      -115.738051234895
-------------------------   --------------------



           ************************************************************
           *        Program running with 4 parallel MPI-processes     *
           *              working on a common directory               *
           ************************************************************
------------------------------------------------------------------------------
                         ORCA SCF GRADIENT CALCULATION
------------------------------------------------------------------------------

Gradient of the Kohn-Sham DFT energy:
Kohn-Sham wavefunction type      ... RKS
Hartree-Fock exchange scaling    ...    0.196
Number of operators              ...    1
Number of atoms                  ...    6
Basis set dimensions             ...   86
Integral neglect threshold       ... 2.5e-11
Integral primitive cutoff        ... 2.5e-12

Nuclear repulsion gradient       ... done
One Electron Gradient            ... done
Pre-screening matrix             ... done
Starting the two electron gradient:
Two electron gradient done
Exchange-correlation gradient    ... done
Dispersion correction            ... done

------------------
CARTESIAN GRADIENT
------------------

   1   C   :   -0.000304196    0.000011089   -0.000077104
   2   O   :    0.000291760   -0.000005070    0.000068377
   3   H   :    0.000018727    0.000005203   -0.000001170
   4   H   :   -0.000012755    0.000002415   -0.000008206
   5   H   :    0.000017937   -0.000016762    0.000011421
   6   H   :   -0.000011473    0.000003125    0.000006682

Difference to translation invariance:
           :    0.0000000000   -0.0000000000    0.0000000000

Norm of the cartesian gradient     ...    0.0004358467
RMS gradient                       ...    0.0001027300
MAX gradient                       ...    0.0003041958

-------
TIMINGS
-------

Total SCF gradient time            ...        1.585 sec

One electron gradient       ....       0.006 sec  (  0.4%)
Prescreening matrices       ....       0.024 sec  (  1.5%)
Two electron gradient       ....       0.838 sec  ( 52.9%)
XC gradient                 ....       0.422 sec  ( 26.6%)
------------------------------------------------------------------------------
                         ORCA GEOMETRY RELAXATION STEP
------------------------------------------------------------------------------

Reading the OPT-File                    .... done
Getting information on internals        .... done
Copying old internal coords+grads       .... done
Making the new internal coordinates     .... (new redundants).... done
Validating the new internal coordinates .... (new redundants).... done
Calculating the B-matrix                .... done
Calculating the G,G- and P matrices     .... done
Transforming gradient to internals      .... done
Projecting the internal gradient        .... done
Number of atoms                         ....   6
Number of internal coordinates          ....  15
Current Energy                          ....  -115.738051235 Eh
Current gradient norm                   ....     0.000435847 Eh/bohr
Maximum allowed component of the step   ....  0.300
Current trust radius                    ....  0.300
Evaluating the initial hessian          ....  (Almloef) done
Projecting the Hessian                  .... done
Forming the augmented Hessian           .... done
Diagonalizing the augmented Hessian     .... done
Last element of RFO vector              ....  0.999999978
Lowest eigenvalues of augmented Hessian:
 -0.000000012  0.021111874  0.181813105  0.192309927  0.313340744
Length of the computed step             ....  0.000208933
The final length of the internal step   ....  0.000208933
Converting the step to cartesian space:
 Initial RMS(Int)=    0.0000539464
Transforming coordinates:
 Iter   0:  RMS(Cart)=    0.0000745595 RMS(Int)=    1.6223021766
 Iter   1:  RMS(Cart)=    0.0000000040 RMS(Int)=    0.0000000045
Imposing constraints:
 Iter   0:  RMS(Cart)=    0.0000000001 RMS(Int)=    0.0000000000
CONVERGED
done
Storing new coordinates                 .... done

                                .--------------------.
          ----------------------|Geometry convergence|-------------------------
          Item                value                   Tolerance       Converged
          ---------------------------------------------------------------------
          RMS gradient        0.0000162661            0.0001000000      YES
          MAX gradient        0.0000420071            0.0003000000      YES
          RMS step            0.0000539464            0.0020000000      YES
          MAX step            0.0001365628            0.0040000000      YES
          ........................................................
          Max(Bonds)      0.0000      Max(Angles)    0.01
          Max(Dihed)        0.00      Max(Improp)    0.00
          ---------------------------------------------------------------------

                    ***********************HURRAY********************
                    ***        THE OPTIMIZATION HAS CONVERGED     ***
                    *************************************************


    ---------------------------------------------------------------------------
                         Redundant Internal Coordinates

                          --- Optimized Parameters ---  
                            (Angstroem and degrees)

        Definition                    OldVal   dE/dq     Step     FinalVal
    ----------------------------------------------------------------------------
     1. B(O   1,C   0)                1.4120  0.000318  0.0000    1.4120 C 
     2. B(H   2,O   1)                0.9575  0.000011 -0.0000    0.9575   
     3. B(H   3,C   0)                1.0960  0.000010 -0.0000    1.0960   
     4. B(H   4,C   0)                1.0895  0.000012 -0.0000    1.0895   
     5. B(H   5,C   0)                1.0960  0.000010 -0.0000    1.0960   
     6. A(O   1,C   0,H   4)          107.02 -0.000042    0.01    107.02   
     7. A(O   1,C   0,H   3)          112.23  0.000018   -0.00    112.22   
     8. A(O   1,C   0,H   5)          112.23  0.000017   -0.00    112.22   
     9. A(H   3,C   0,H   5)          108.77 -0.000005   -0.00    108.77   
    10. A(H   4,C   0,H   5)          108.22  0.000006   -0.00    108.22   
    11. A(H   3,C   0,H   4)          108.22  0.000005   -0.00    108.22   
    12. A(C   0,O   1,H   2)          108.75  0.000029   -0.00    108.75   
    13. D(H   2,O   1,C   0,H   5)    -61.43 -0.000011    0.00    -61.43   
    14. D(H   2,O   1,C   0,H   3)     61.43  0.000009   -0.00     61.43   
    15. D(H   2,O   1,C   0,H   4)    180.00 -0.000001    0.00    180.00   
    ----------------------------------------------------------------------------
                 *******************************************************
                 *** FINAL ENERGY EVALUATION AT THE STATIONARY POINT ***
                 ***               (AFTER    1 CYCLES)               ***
                 *******************************************************
---------------------------------
CARTESIAN COORDINATES (ANGSTROEM)
---------------------------------
  C      3.011128   -1.180938    0.598477
  O      4.394890   -1.128042    0.874337
  H      4.772305   -0.378982    0.412508
  H      2.806295   -1.318970   -0.469361
  H      2.611355   -2.040265    1.135841
  H      2.484634   -0.284508    0.945621

----------------------------
CARTESIAN COORDINATES (A.U.)
----------------------------
  NO LB      ZA    FRAG     MASS         X           Y           Z
   0 C     6.0000    0    12.011    5.690207   -2.231650    1.130958
   1 O     8.0000    0    15.999    8.305139   -2.131691    1.652257
   2 H     1.0000    0     1.008    9.018350   -0.716172    0.779526
   3 H     1.0000    0     1.008    5.303129   -2.492492   -0.886964
   4 H     1.0000    0     1.008    4.934746   -3.855541    2.146428
   5 H     1.0000    0     1.008    4.695278   -0.537642    1.786965

--------------------------------
INTERNAL COORDINATES (ANGSTROEM)
--------------------------------
 C      0   0   0     0.000000000000     0.00000000     0.00000000
 O      1   0   0     1.411982764118     0.00000000     0.00000000
 H      2   1   0     0.957506679378   108.74529662     0.00000000
 H      1   2   3     1.096033028868   112.22302185    61.42629810
 H      1   2   3     1.089504009673   107.02475469   180.00015495
 H      1   2   3     1.096034289193   112.22486682   298.57441063

---------------------------
INTERNAL COORDINATES (A.U.)
---------------------------
 C      0   0   0     0.000000000000     0.00000000     0.00000000
 O      1   0   0     2.668260730000     0.00000000     0.00000000
 H      2   1   0     1.809425395424   108.74529662     0.00000000
 H      1   2   3     2.071202258292   112.22302185    61.42629810
 H      1   2   3     2.058864200092   107.02475469   180.00015495
 H      1   2   3     2.071204639962   112.22486682   298.57441063

---------------------
BASIS SET INFORMATION
---------------------
There are 3 groups of distinct atoms

 Group   1 Type C   : 11s6p2d1f contracted to 5s3p2d1f pattern {62111/411/11/1}
 Group   2 Type O   : 11s6p2d1f contracted to 5s3p2d1f pattern {62111/411/11/1}
 Group   3 Type H   : 5s1p contracted to 3s1p pattern {311/1}

Atom   0C    basis set group =>   1
Atom   1O    basis set group =>   2
Atom   2H    basis set group =>   3
Atom   3H    basis set group =>   3
Atom   4H    basis set group =>   3
Atom   5H    basis set group =>   3


           ************************************************************
           *        Program running with 4 parallel MPI-processes     *
           *              working on a common directory               *
           ************************************************************
------------------------------------------------------------------------------
                           ORCA GTO INTEGRAL CALCULATION
------------------------------------------------------------------------------

                         BASIS SET STATISTICS AND STARTUP INFO

 # of primitive gaussian shells          ...   64
 # of primitive gaussian functions       ...  124
 # of contracted shells                  ...   38
 # of contracted basis functions         ...   86
 Highest angular momentum                ...    3
 Maximum contraction depth               ...    6
 Integral package used                   ... LIBINT
 Integral threshhold            Thresh   ...  2.500e-11
 Primitive cut-off              TCut     ...  2.500e-12


------------------------------ INTEGRAL EVALUATION ----------------------------


 * One electron integrals 
 Pre-screening matrix                    ... done
 Shell pair data                         ... done (   0.000 sec)



           ************************************************************
           *        Program running with 4 parallel MPI-processes     *
           *              working on a common directory               *
           ************************************************************
-------------------------------------------------------------------------------
                                 ORCA SCF
-------------------------------------------------------------------------------

------------
SCF SETTINGS
------------
Hamiltonian:
 Density Functional     Method          .... DFT(GTOs)
 Exchange Functional    Exchange        .... WB97X-D3
 Correlation Functional Correlation     .... WB97X-D3
 Gradients option       PostSCFGGA      .... off
 Hybrid DFT is turned on
   Fraction HF Exchange ScalHFX         ....  0.195728
   Scaling of DF-GGA-X  ScalDFX         ....  0.000000
   Scaling of DF-GGA-C  ScalDFC         ....  1.000000
   Scaling of DF-LDA-C  ScalLDAC        ....  1.000000
   Perturbative correction              ....  0.000000
   Density functional embedding theory  .... OFF
 Long-range corrected/Screened/Range-Separated Hybrid DFT is turned on
   Amount of maximum screened exact exchange              ....  0.804272
   Range separation parameter mu (erf(mu*r12)/r12)        ....  0.250000


General Settings:
 Integral files         IntName         .... 3_geo_opt
 Hartree-Fock type      HFTyp           .... RHF
 Total Charge           Charge          ....    0
 Multiplicity           Mult            ....    1
 Number of Electrons    NEL             ....   18
 Basis Dimension        Dim             ....   86
 Nuclear Repulsion      ENuc            ....     40.4319419302 Eh

Convergence Acceleration:
 DIIS                   CNVDIIS         .... on
   Start iteration      DIISMaxIt       ....    12
   Startup error        DIISStart       ....  0.200000
   # of expansion vecs  DIISMaxEq       ....     5
   Bias factor          DIISBfac        ....   1.050
   Max. coefficient     DIISMaxC        ....  10.000
 Newton-Raphson         CNVNR           .... off
 SOSCF                  CNVSOSCF        .... on
   Start iteration      SOSCFMaxIt      ....   150
   Startup grad/error   SOSCFStart      ....  0.003300
 Level Shifting         CNVShift        .... on
   Level shift para.    LevelShift      ....    0.2500
   Turn off err/grad.   ShiftErr        ....    0.0010
 Zerner damping         CNVZerner       .... off
 Static damping         CNVDamp         .... on
   Fraction old density DampFac         ....    0.7000
   Max. Damping (<1)    DampMax         ....    0.9800
   Min. Damping (>=0)   DampMin         ....    0.0000
   Turn off err/grad.   DampErr         ....    0.1000
 Fernandez-Rico         CNVRico         .... off

SCF Procedure:
 Maximum # iterations   MaxIter         ....   125
 SCF integral mode      SCFMode         .... Direct
   Integral package                     .... LIBINT
 Reset frequency        DirectResetFreq ....    20
 Integral Threshold     Thresh          ....  2.500e-11 Eh
 Primitive CutOff       TCut            ....  2.500e-12 Eh

Convergence Tolerance:
 Convergence Check Mode ConvCheckMode   .... Total+1el-Energy
 Convergence forced     ConvForced      .... 0
 Energy Change          TolE            ....  1.000e-08 Eh
 1-El. energy change                    ....  1.000e-05 Eh
 Orbital Gradient       TolG            ....  1.000e-05
 Orbital Rotation angle TolX            ....  1.000e-05
 DIIS Error             TolErr          ....  5.000e-07


Diagonalization of the overlap matrix:
Smallest eigenvalue                        ... 1.650e-03
Time for diagonalization                   ...    0.002 sec
Threshold for overlap eigenvalues          ... 1.000e-08
Number of eigenvalues below threshold      ... 0
Time for construction of square roots      ...    0.003 sec
Total time needed                          ...    0.006 sec

---------------------
INITIAL GUESS: MOREAD
---------------------
Guess MOs are being read from file: 3_geo_opt.gbw
Input Geometry matches current geometry (good)
Input basis set matches current basis set (good)
MOs were renormalized
MOs were reorthogonalized (Cholesky)
                      ------------------
                      INITIAL GUESS DONE (   0.0 sec)
                      ------------------
-------------------
DFT GRID GENERATION
-------------------

General Integration Accuracy     IntAcc      ...  5.010
Radial Grid Type                 RadialGrid  ... Gauss-Chebyshev
Angular Grid (max. acc.)         AngularGrid ... Lebedev-434
Angular grid pruning method      GridPruning ... 3 (G Style)
Weight generation scheme         WeightScheme... Becke
Basis function cutoff            BFCut       ...    1.0000e-11
Integration weight cutoff        WCut        ...    1.0000e-14
Grids for H and He will be reduced by one unit

# of grid points (after initial pruning)     ...  48308 (   0.0 sec)
# of grid points (after weights+screening)   ...  46677 (   0.0 sec)
nearest neighbour list constructed           ...    0.0 sec
Grid point re-assignment to atoms done       ...    0.0 sec
Grid point division into batches done        ...    0.3 sec
Reduced shell lists constructed in    0.3 sec

Total number of grid points                  ...    46677
Total number of batches                      ...      733
Average number of points per batch           ...       63
Average number of grid points per atom       ...     7780
Average number of shells per batch           ...    33.14 (87.21%)
Average number of basis functions per batch  ...    76.85 (89.36%)
Average number of large shells per batch     ...    30.61 (92.35%)
Average number of large basis fcns per batch ...    72.30 (94.08%)
Maximum spatial batch extension              ...  15.76, 14.99, 16.58 au
Average spatial batch extension              ...   0.40,  0.41,  0.42 au

Time for grid setup =    0.399 sec

--------------
SCF ITERATIONS
--------------
ITER       Energy         Delta-E        Max-DP      RMS-DP      [F,P]     Damp
               ***  Starting incremental Fock matrix formation  ***
                      *** Initiating the SOSCF procedure ***
                      *** Re-Reading the Fockian *** 
                      *** Removing any level shift *** 
ITER      Energy       Delta-E        Grad      Rot      Max-DP    RMS-DP
  0   -115.73770441 -115.7377044143  0.000010  0.000010  0.000010  0.000001
               *** Restarting incremental Fock matrix formation ***
  1   -115.73770442  -0.0000000024  0.000005  0.000005  0.000006  0.000000
                  ***Gradient check signals convergence***
              ***Rediagonalizing the Fockian in SOSCF/NRSCF***

               *****************************************************
               *                     SUCCESS                       *
               *           SCF CONVERGED AFTER   2 CYCLES          *
               *****************************************************

Setting up the final grid:

General Integration Accuracy     IntAcc      ...  5.340
Radial Grid Type                 RadialGrid  ... Gauss-Chebyshev
Angular Grid (max. acc.)         AngularGrid ... Lebedev-590
Angular grid pruning method      GridPruning ... 3 (G Style)
Weight generation scheme         WeightScheme... Becke
Basis function cutoff            BFCut       ...    1.0000e-11
Integration weight cutoff        WCut        ...    1.0000e-14
Grids for H and He will be reduced by one unit

# of grid points (after initial pruning)     ...  77324 (   0.0 sec)
# of grid points (after weights+screening)   ...  74512 (   0.0 sec)
nearest neighbour list constructed           ...    0.0 sec
Grid point re-assignment to atoms done       ...    0.0 sec
Grid point division into batches done        ...    0.8 sec
Reduced shell lists constructed in    0.8 sec

Total number of grid points                  ...    74512
Total number of batches                      ...     1167
Average number of points per batch           ...       63
Average number of grid points per atom       ...    12419
Average number of shells per batch           ...    32.92 (86.64%)
Average number of basis functions per batch  ...    76.35 (88.78%)
Average number of large shells per batch     ...    30.31 (92.06%)
Average number of large basis fcns per batch ...    71.52 (93.67%)
Maximum spatial batch extension              ...  13.18, 14.25, 15.48 au
Average spatial batch extension              ...   0.34,  0.36,  0.37 au

Final grid set up in    0.9 sec
Final integration                            ... done (   0.2 sec)
Change in XC energy                          ...    -0.000107398
Integrated number of electrons               ...    18.000000747
Previous integrated no of electrons          ...    18.000002282

----------------
TOTAL SCF ENERGY
----------------

Total Energy       :         -115.73781182 Eh           -3149.38597 eV

Components:
Nuclear Repulsion  :           40.43194193 Eh            1100.20907 eV
Electronic Energy  :         -156.16975375 Eh           -4249.59504 eV
One Electron Energy:         -237.28355703 Eh           -6456.81384 eV
Two Electron Energy:           81.11380329 Eh            2207.21880 eV

Virial components:
Potential Energy   :         -230.98772129 Eh           -6285.49544 eV
Kinetic Energy     :          115.24990948 Eh            3136.10947 eV
Virial Ratio       :            2.00423343


DFT components:
N(Alpha)           :        9.000000373267 electrons
N(Beta)            :        9.000000373267 electrons
N(Total)           :       18.000000746534 electrons
E(XC)              :      -10.655474106511 Eh       
DFET-embed. en.    :        0.000000000000 Eh       

---------------
SCF CONVERGENCE
---------------

  Last Energy change         ...   -2.0998e-10  Tolerance :   1.0000e-08
  Last MAX-Density change    ...    3.4192e-06  Tolerance :   1.0000e-07
  Last RMS-Density change    ...    1.4224e-07  Tolerance :   5.0000e-09
  Last Orbital Gradient      ...    1.2108e-06  Tolerance :   1.0000e-05
  Last Orbital Rotation      ...    2.1899e-06  Tolerance :   1.0000e-05

             **** THE GBW FILE WAS UPDATED (3_geo_opt.gbw) ****
             **** DENSITY FILE WAS UPDATED (3_geo_opt.scfp.tmp) ****
             **** ENERGY FILE WAS UPDATED (3_geo_opt.en.tmp) ****
----------------
ORBITAL ENERGIES
----------------

  NO   OCC          E(Eh)            E(eV) 
   0   2.0000     -19.228086      -523.2228 
   1   2.0000     -10.315148      -280.6894 
   2   2.0000      -1.136678       -30.9306 
   3   2.0000      -0.795364       -21.6429 
   4   2.0000      -0.611517       -16.6402 
   5   2.0000      -0.541732       -14.7413 
   6   2.0000      -0.526280       -14.3208 
   7   2.0000      -0.433833       -11.8052 
   8   2.0000      -0.373627       -10.1669 
   9   0.0000       0.116644         3.1740 
  10   0.0000       0.156647         4.2626 
  11   0.0000       0.202566         5.5121 
  12   0.0000       0.205103         5.5811 
  13   0.0000       0.226327         6.1587 
  14   0.0000       0.304338         8.2815 
  15   0.0000       0.313360         8.5270 
  16   0.0000       0.404330        11.0024 
  17   0.0000       0.452576        12.3152 
  18   0.0000       0.484995        13.1974 
  19   0.0000       0.535861        14.5815 
  20   0.0000       0.543657        14.7937 
  21   0.0000       0.567635        15.4461 
  22   0.0000       0.598539        16.2871 
  23   0.0000       0.603483        16.4216 
  24   0.0000       0.671324        18.2677 
  25   0.0000       0.778974        21.1969 
  26   0.0000       0.832133        22.6435 
  27   0.0000       0.861309        23.4374 
  28   0.0000       0.989588        26.9281 
  29   0.0000       1.013917        27.5901 
  30   0.0000       1.109634        30.1947 
  31   0.0000       1.382628        37.6232 
  32   0.0000       1.512870        41.1673 
  33   0.0000       1.553484        42.2725 
  34   0.0000       1.602796        43.6143 
  35   0.0000       1.612958        43.8908 
  36   0.0000       1.624147        44.1953 
  37   0.0000       1.660496        45.1844 
  38   0.0000       1.687863        45.9291 
  39   0.0000       1.774661        48.2910 
  40   0.0000       1.952117        53.1198 
  41   0.0000       2.030679        55.2576 
  42   0.0000       2.055167        55.9239 
  43   0.0000       2.094143        56.9845 
  44   0.0000       2.114543        57.5396 
  45   0.0000       2.268471        61.7282 
  46   0.0000       2.333253        63.4910 
  47   0.0000       2.345628        63.8278 
  48   0.0000       2.380891        64.7873 
  49   0.0000       2.429461        66.1090 
  50   0.0000       2.497603        67.9632 
  51   0.0000       2.596258        70.6478 
  52   0.0000       2.639904        71.8355 
  53   0.0000       2.707191        73.6664 
  54   0.0000       2.841815        77.3297 
  55   0.0000       2.871157        78.1282 
  56   0.0000       2.888290        78.5944 
  57   0.0000       2.992761        81.4372 
  58   0.0000       3.095982        84.2460 
  59   0.0000       3.172829        86.3371 
  60   0.0000       3.298998        89.7703 
  61   0.0000       3.408369        92.7464 
  62   0.0000       3.441659        93.6523 
  63   0.0000       3.488131        94.9169 
  64   0.0000       3.612087        98.2899 
  65   0.0000       3.645156        99.1897 
  66   0.0000       3.666890        99.7812 
  67   0.0000       4.005464       108.9942 
  68   0.0000       4.223843       114.9366 
  69   0.0000       4.273388       116.2848 
  70   0.0000       4.455870       121.2504 
  71   0.0000       4.564462       124.2053 
  72   0.0000       5.345934       145.4703 
  73   0.0000       5.425188       147.6269 
  74   0.0000       5.554242       151.1386 
  75   0.0000       5.825438       158.5182 
  76   0.0000       5.833614       158.7407 
  77   0.0000       5.985030       162.8610 
  78   0.0000       6.379478       173.5944 
  79   0.0000       6.530864       177.7138 
  80   0.0000       6.744947       183.5393 
  81   0.0000       6.803761       185.1398 
  82   0.0000       7.039410       191.5521 
  83   0.0000       7.215721       196.3497 
  84   0.0000      22.405150       609.6751 
  85   0.0000      43.664064      1188.1596 

                    ********************************
                    * MULLIKEN POPULATION ANALYSIS *
                    ********************************

-----------------------
MULLIKEN ATOMIC CHARGES
-----------------------
   0 C :   -0.150951
   1 O :   -0.477707
   2 H :    0.312995
   3 H :    0.098693
   4 H :    0.118274
   5 H :    0.098697
Sum of atomic charges:   -0.0000000

--------------------------------
MULLIKEN REDUCED ORBITAL CHARGES
--------------------------------
  0 C s       :     3.223169  s :     3.223169
      pz      :     1.047302  p :     2.826177
      px      :     0.702205
      py      :     1.076670
      dz2     :     0.011107  d :     0.094192
      dxz     :     0.032468
      dyz     :     0.002644
      dx2y2   :     0.012740
      dxy     :     0.035233
      f0      :     0.001355  f :     0.007413
      f+1     :     0.000955
      f-1     :     0.000175
      f+2     :     0.001462
      f-2     :     0.000123
      f+3     :     0.001360
      f-3     :     0.001983
  1 O s       :     3.792838  s :     3.792838
      pz      :     1.759454  p :     4.652624
      px      :     1.313593
      py      :     1.579577
      dz2     :     0.003134  d :     0.030561
      dxz     :     0.006471
      dyz     :     0.005835
      dx2y2   :     0.008935
      dxy     :     0.006184
      f0      :     0.000269  f :     0.001684
      f+1     :     0.000233
      f-1     :     0.000087
      f+2     :     0.000287
      f-2     :     0.000235
      f+3     :     0.000367
      f-3     :     0.000206
  2 H s       :     0.639309  s :     0.639309
      pz      :     0.017008  p :     0.047696
      px      :     0.012720
      py      :     0.017968
  3 H s       :     0.881941  s :     0.881941
      pz      :     0.012073  p :     0.019365
      px      :     0.003007
      py      :     0.004286
  4 H s       :     0.861506  s :     0.861506
      pz      :     0.006297  p :     0.020220
      px      :     0.004194
      py      :     0.009729
  5 H s       :     0.881939  s :     0.881939
      pz      :     0.004930  p :     0.019365
      px      :     0.004976
      py      :     0.009459


                     *******************************
                     * LOEWDIN POPULATION ANALYSIS *
                     *******************************

----------------------
LOEWDIN ATOMIC CHARGES
----------------------
   0 C :   -0.384855
   1 O :   -0.076393
   2 H :    0.165740
   3 H :    0.093412
   4 H :    0.108685
   5 H :    0.093411

-------------------------------
LOEWDIN REDUCED ORBITAL CHARGES
-------------------------------
  0 C s       :     2.863025  s :     2.863025
      pz      :     1.096702  p :     3.052243
      px      :     0.845929
      py      :     1.109613
      dz2     :     0.072376  d :     0.412640
      dxz     :     0.113927
      dyz     :     0.020704
      dx2y2   :     0.082109
      dxy     :     0.123525
      f0      :     0.007812  f :     0.056947
      f+1     :     0.007155
      f-1     :     0.000853
      f+2     :     0.012508
      f-2     :     0.004826
      f+3     :     0.011725
      f-3     :     0.012067
  1 O s       :     3.366514  s :     3.366514
      pz      :     1.699171  p :     4.633747
      px      :     1.381097
      py      :     1.553479
      dz2     :     0.006125  d :     0.071494
      dxz     :     0.017837
      dyz     :     0.008087
      dx2y2   :     0.019331
      dxy     :     0.020113
      f0      :     0.000483  f :     0.004639
      f+1     :     0.000621
      f-1     :     0.000072
      f+2     :     0.001049
      f-2     :     0.000560
      f+3     :     0.000890
      f-3     :     0.000964
  2 H s       :     0.675161  s :     0.675161
      pz      :     0.055762  p :     0.159098
      px      :     0.033905
      py      :     0.069432
  3 H s       :     0.846756  s :     0.846756
      pz      :     0.036187  p :     0.059831
      px      :     0.009714
      py      :     0.013930
  4 H s       :     0.831710  s :     0.831710
      pz      :     0.019214  p :     0.059604
      px      :     0.011612
      py      :     0.028778
  5 H s       :     0.846758  s :     0.846758
      pz      :     0.015607  p :     0.059831
      px      :     0.015203
      py      :     0.029021


                      *****************************
                      * MAYER POPULATION ANALYSIS *
                      *****************************

  NA   - Mulliken gross atomic population
  ZA   - Total nuclear charge
  QA   - Mulliken gross atomic charge
  VA   - Mayer's total valence
  BVA  - Mayer's bonded valence
  FA   - Mayer's free valence

  ATOM       NA         ZA         QA         VA         BVA        FA
  0 C      6.1510     6.0000    -0.1510     3.9349     3.9349    -0.0000
  1 O      8.4777     8.0000    -0.4777     1.8881     1.8881    -0.0000
  2 H      0.6870     1.0000     0.3130     0.9136     0.9136    -0.0000
  3 H      0.9013     1.0000     0.0987     0.9596     0.9596    -0.0000
  4 H      0.8817     1.0000     0.1183     0.9598     0.9598    -0.0000
  5 H      0.9013     1.0000     0.0987     0.9596     0.9596    -0.0000

  Mayer bond orders larger than 0.1
B(  0-C ,  1-O ) :   0.9986 B(  0-C ,  3-H ) :   0.9755 B(  0-C ,  4-H ) :   0.9749 
B(  0-C ,  5-H ) :   0.9755 B(  1-O ,  2-H ) :   0.9002 

-------
TIMINGS
-------

Total SCF time: 0 days 0 hours 0 min 3 sec 

Total time                  ....       3.606 sec
Sum of individual times     ....       3.293 sec  ( 91.3%)

Fock matrix formation       ....       1.947 sec  ( 54.0%)
  XC integration            ....       0.617 sec  ( 31.7% of F)
    Basis function eval.    ....       0.139 sec  ( 22.6% of XC)
    Density eval.           ....       0.089 sec  ( 14.4% of XC)
    XC-Functional eval.     ....       0.224 sec  ( 36.2% of XC)
    XC-Potential eval.      ....       0.091 sec  ( 14.8% of XC)
Diagonalization             ....       0.005 sec  (  0.1%)
Density matrix formation    ....       0.001 sec  (  0.0%)
Population analysis         ....       0.029 sec  (  0.8%)
Initial guess               ....       0.003 sec  (  0.1%)
Orbital Transformation      ....       0.000 sec  (  0.0%)
Orbital Orthonormalization  ....       0.001 sec  (  0.0%)
DIIS solution               ....       0.000 sec  (  0.0%)
SOSCF solution              ....       0.011 sec  (  0.3%)
Grid generation             ....       1.297 sec  ( 36.0%)


-------------------------------------------------------------------------------
                          DFT DISPERSION CORRECTION                            
                                                                               
                              DFTD3 V3.1  Rev 1                                
                              USING zero damping                               
-------------------------------------------------------------------------------
The omegaB97X-D3 functional is recognized. Fit by Chai et al.
Active option DFTDOPT                   ...         3   

molecular C6(AA) [au] = 208.716113 


            DFT-D V3
 parameters
 s6 scaling factor         :     1.0000 
 rs6 scaling factor        :     1.2810 
 s8 scaling factor         :     1.0000 
 rs8 scaling factor        :     1.0940 
 Damping factor alpha6     :    14.0000 
 Damping factor alpha8     :    16.0000 
 ad hoc parameters k1-k3   :    16.0000     1.3333    -4.0000 

 Edisp/kcal,au: -0.150243891925  -0.000239428857 
 E6   /kcal   :  -0.029631464 
 E8   /kcal   :  -0.120612428 
 % E8         :  80.277757808 

-------------------------   ----------------
Dispersion correction           -0.000239429
-------------------------   ----------------


-------------------------   --------------------
FINAL SINGLE POINT ENERGY      -115.738051243863
-------------------------   --------------------

                                *** OPTIMIZATION RUN DONE ***

                            ***************************************
                            *     ORCA property calculations      *
                            ***************************************

                                    ---------------------
                                    Active property flags
                                    ---------------------
   (+) Dipole Moment


------------------------------------------------------------------------------
                       ORCA ELECTRIC PROPERTIES CALCULATION
------------------------------------------------------------------------------

Dipole Moment Calculation                       ... on
Quadrupole Moment Calculation                   ... off
Polarizability Calculation                      ... off
GBWName                                         ... 3_geo_opt.gbw
Electron density file                           ... 3_geo_opt.scfp.tmp
The origin for moment calculation is the CENTER OF MASS  = ( 7.033335, -2.140064  1.369295)

-------------
DIPOLE MOMENT
-------------
                                X             Y             Z
Electronic contribution:      1.75576      -0.02832       0.41980
Nuclear contribution   :     -2.06617       0.47588      -0.81756
                        -----------------------------------------
Total Dipole Moment    :     -0.31040       0.44756      -0.39775
                        -----------------------------------------
Magnitude (a.u.)       :      0.67444
Magnitude (Debye)      :      1.71429



--------------------
Rotational spectrum 
--------------------
 
Rotational constants in cm-1:     4.292880     0.833412     0.804546 
Rotational constants in MHz : 128697.319229 24985.075750 24119.694516 

 Dipole components along the rotational axes: 
x,y,z [a.u.] :    -0.333507     0.586210    -0.000005 
x,y,z [Debye]:    -0.847708     1.490027    -0.000013 

 
------------------------------------------------------------------------------
                      ORCA CHELPG CHARGES GENERATION
------------------------------------------------------------------------------

GBW file                           ... 3_geo_opt.gbw

Reading the GBW file               ... done

Grid spacing                       ...     0.300000
Point Cut-Off                      ...     2.800000
Van-der-Waals Radii                ...        COSMO
Total charge                       ...            0


Number of points X direction       ...           26
Number of points Y direction       ...           24
Number of points Z direction       ...           24
Maximum number of possible points  ...        14976
Final number of points             ...         5948


CHELPG Charges            
--------------------------------
  0   C   :       0.093377
  1   O   :      -0.606914
  2   H   :       0.403845
  3   H   :       0.014491
  4   H   :       0.081171
  5   H   :       0.014031
--------------------------------
Total charge:    -0.000000
--------------------------------

CHELPG charges calculated...

Timings for individual parts in CHELPG calculation:
Grid generation                 ...        0.002 sec (=   0.000 min)
Potential calculation           ...        0.792 sec (=   0.013 min)
Fit to the potential            ...        0.001 sec (=   0.000 min)
------------------------------------------------------------------------------


Timings for individual modules:

Sum of individual times         ...       31.883 sec (=   0.531 min)
GTO integral calculation        ...        6.513 sec (=   0.109 min)  20.4 %
SCF iterations                  ...       16.093 sec (=   0.268 min)  50.5 %
SCF Gradient evaluation         ...        3.656 sec (=   0.061 min)  11.5 %
Geometry relaxation             ...        1.724 sec (=   0.029 min)   5.4 %
CHELPG charge generation        ...        3.897 sec (=   0.065 min)  12.2 %
                             ****ORCA TERMINATED NORMALLY****
TOTAL RUN TIME: 0 days 0 hours 0 minutes 37 seconds 318 msec
