
                                 *****************
                                 * O   R   C   A *
                                 *****************

           --- An Ab Initio, DFT and Semiempirical electronic structure package ---

                  #######################################################
                  #                        -***-                        #
                  #          Department of theory and spectroscopy      #
                  #               Directorship: Frank Neese             #
                  #        Max Planck Institute fuer Kohlenforschung    #
                  #                Kaiser Wilhelm Platz 1               #
                  #                 D-45470 Muelheim/Ruhr               #
                  #                      Germany                        #
                  #                                                     #
                  #                  All rights reserved                #
                  #                        -***-                        #
                  #######################################################


                         Program Version 4.1.2  - RELEASE  -


 With contributions from (in alphabetic order):
   Daniel Aravena         : Magnetic Properties
   Michael Atanasov       : Ab Initio Ligand Field Theory
   Alexander A. Auer      : GIAO ZORA
   Ute Becker             : Parallelization
   Giovanni Bistoni       : ED, Open-shell LED
   Martin Brehm           : Molecular dynamics
   Dmytro Bykov           : SCF Hessian
   Vijay G. Chilkuri      : MRCI spin determinant printing
   Dipayan Datta          : RHF DLPNO-CCSD density
   Achintya Kumar Dutta   : EOM-CC, STEOM-CC
   Dmitry Ganyushin       : Spin-Orbit,Spin-Spin,Magnetic field MRCI
   Miquel Garcia          : C-PCM Hessian
   Yang Guo               : DLPNO-NEVPT2, CIM, IAO-localization
   Andreas Hansen         : Spin unrestricted coupled pair/coupled cluster methods
   Benjamin Helmich-Paris : CASSCF linear response (MC-RPA)
   Lee Huntington         : MR-EOM, pCC
   Robert Izsak           : Overlap fitted RIJCOSX, COSX-SCS-MP3, EOM
   Christian Kollmar      : KDIIS, OOCD, Brueckner-CCSD(T), CCSD density
   Simone Kossmann        : Meta GGA functionals, TD-DFT gradient, OOMP2, MP2 Hessian
   Martin Krupicka        : AUTO-CI
   Lucas Lang             : DCDCAS
   Dagmar Lenk            : GEPOL surface, SMD
   Dimitrios Liakos       : Extrapolation schemes; parallel MDCI
   Dimitrios Manganas     : ROCIS; embedding schemes
   Dimitrios Pantazis     : SARC Basis sets
   Taras Petrenko         : DFT Hessian,TD-DFT gradient, ASA, ECA, R-Raman, ABS, FL, XAS/XES, NRVS
   Peter Pinski           : DLPNO-MP2, DLPNO-MP2 Gradient
   Christoph Reimann      : Effective Core Potentials
   Marius Retegan         : Local ZFS, SOC
   Christoph Riplinger    : Optimizer, TS searches, QM/MM, DLPNO-CCSD(T), (RO)-DLPNO pert. Triples
   Tobias Risthaus        : Range-separated hybrids, TD-DFT gradient, RPA, STAB
   Michael Roemelt        : Restricted open shell CIS
   Masaaki Saitow         : Open-shell DLPNO
   Barbara Sandhoefer     : DKH picture change effects
   Avijit Sen             : IP-ROCIS
   Kantharuban Sivalingam : CASSCF convergence, NEVPT2, FIC-MRCI
   Bernardo de Souza      : ESD, SOC TD-DFT
   Georgi Stoychev        : AutoAux, RI-MP2 NMR
   Willem Van den Heuvel  : Paramagnetic NMR
   Boris Wezisla          : Elementary symmetry handling
   Frank Wennmohs         : Technical directorship


 We gratefully acknowledge several colleagues who have allowed us to
 interface, adapt or use parts of their codes:
   Stefan Grimme, W. Hujo, H. Kruse,             : VdW corrections, initial TS optimization,
                  C. Bannwarth                     DFT functionals, gCP, sTDA/sTD-DF
   Ed Valeev                                     : LibInt (2-el integral package), F12 methods
   Garnet Chan, S. Sharma, J. Yang, R. Olivares  : DMRG
   Ulf Ekstrom                                   : XCFun DFT Library
   Mihaly Kallay                                 : mrcc  (arbitrary order and MRCC methods)
   Andreas Klamt, Michael Diedenhofen            : otool_cosmo (COSMO solvation model)
   Jiri Pittner, Ondrej Demel                    : Mk-CCSD
   Frank Weinhold                                : gennbo (NPA and NBO analysis)
   Christopher J. Cramer and Donald G. Truhlar   : smd solvation model
   Lars Goerigk                                  : TD-DFT with DH, B97 family of functionals
   V. Asgeirsson, H. Jonsson                     : NEB implementation
   FAccTs GmbH                                   : IRC, NEB, NEB-TS, Multilevel


 Your calculation uses the libint2 library for the computation of 2-el integrals
 For citations please refer to: http://libint.valeyev.net

 This ORCA versions uses:
   CBLAS   interface :  Fast vector & matrix operations
   LAPACKE interface :  Fast linear algebra routines
   SCALAPACK package :  Parallel linear algebra routines


Your calculation utilizes the atom-pairwise dispersion correction
with the zero-damping scheme (D30)
Cite in your paper:
S.Grimme, J.Antony, S.Ehrlich and H.Krieg, J.Chem.Phys., 132, (2010), 154104 
   

XCFun DFT library Copyright 2009-2010 Ulf Ekstrom and contributors.
See http://admol.org/xcfun for more information. This is free soft-
ware; see the source code for copying conditions. There is ABSOLUTELY
NO WARRANTY; not even for MERCHANTABILITY or FITNESS FOR A PARTICULAR
PURPOSE. For details see the documentation. Scientific users of this 
library should cite U. Ekstrom, L. Visscher, R. Bast, A. J. Thorvald-
sen and K. Ruud; J.Chem.Theor.Comp. 2010, DOI: 10.1021/ct100117s
XCFun Version 0.99 
----- Orbital basis set information -----
Your calculation utilizes the basis: def2-TZVP
   F. Weigend and R. Ahlrichs, Phys. Chem. Chem. Phys. 7, 3297 (2005).

================================================================================
                                        WARNINGS
                       Please study these warnings very carefully!
================================================================================


INFO   : the flag for use of LIBINT has been found!

================================================================================
                                       INPUT FILE
================================================================================
NAME = 9.in
|  1> #Run DFT-D3 single point of the dimer
|  2> ! wB97X-D3 def2-TZVP TIGHTSCF  CHELPG PAL8
|  3> 
|  4> %base "9_charges"
|  5> 
|  6> %scf
|  7> MaxIter 1000
|  8> end
|  9> %output
| 10>   Print[ P_Mayer ] 1
| 11>   Print[ P_NatPop ] 1
| 12>   Print[ P_Hirshfeld ] 1
| 13>   Print[ P_Mulliken ] 1
| 14>   Print [ P_Loewdin ] 1
| 15> end
| 16> 
| 17> * xyz 0 1
| 18>   C                      -7.214228            -11.575751           5.219818            
| 19>   O                      -8.100878            -10.534637           4.850895            
| 20>   H                      -7.878710            -9.863122            5.484422            
| 21>   H                      -7.820722            -12.348117           5.734426            
| 22>   H                      -6.724882            -11.972702           4.342793            
| 23>   H                      -6.504638            -11.155293           5.889680            
| 24> *
| 25> 
| 26>                          ****END OF INPUT****
================================================================================

                       ****************************
                       * Single Point Calculation *
                       ****************************

---------------------------------
CARTESIAN COORDINATES (ANGSTROEM)
---------------------------------
  C     -7.214228  -11.575751    5.219818
  O     -8.100878  -10.534637    4.850895
  H     -7.878710   -9.863122    5.484422
  H     -7.820722  -12.348117    5.734426
  H     -6.724882  -11.972702    4.342793
  H     -6.504638  -11.155293    5.889680

----------------------------
CARTESIAN COORDINATES (A.U.)
----------------------------
  NO LB      ZA    FRAG     MASS         X           Y           Z
   0 C     6.0000    0    12.011  -13.632915  -21.874999    9.864026
   1 O     8.0000    0    15.999  -15.308441  -19.907579    9.166863
   2 H     1.0000    0     1.008  -14.888604  -18.638599   10.364056
   3 H     1.0000    0     1.008  -14.779023  -23.334559   10.836495
   4 H     1.0000    0     1.008  -12.708185  -22.625128    8.206689
   5 H     1.0000    0     1.008  -12.291984  -21.080449   11.129882

--------------------------------
INTERNAL COORDINATES (ANGSTROEM)
--------------------------------
 C      0   0   0     0.000000000000     0.00000000     0.00000000
 O      1   0   0     1.416393576456     0.00000000     0.00000000
 H      2   1   0     0.949551196712   101.51209359     0.00000000
 H      1   2   3     1.108695451265   106.88932102   105.65378589
 H      1   2   3     1.079908539989   110.01792094   227.03859346
 H      1   2   3     1.062552585479   106.94122950   347.41990565

---------------------------
INTERNAL COORDINATES (A.U.)
---------------------------
 C      0   0   0     0.000000000000     0.00000000     0.00000000
 O      1   0   0     2.676595957347     0.00000000     0.00000000
 H      2   1   0     1.794391711924   101.51209359     0.00000000
 H      1   2   3     2.095130768815   106.88932102   105.65378589
 H      1   2   3     2.040731390263   110.01792094   227.03859346
 H      1   2   3     2.007933389445   106.94122950   347.41990565

---------------------
BASIS SET INFORMATION
---------------------
There are 3 groups of distinct atoms

 Group   1 Type C   : 11s6p2d1f contracted to 5s3p2d1f pattern {62111/411/11/1}
 Group   2 Type O   : 11s6p2d1f contracted to 5s3p2d1f pattern {62111/411/11/1}
 Group   3 Type H   : 5s1p contracted to 3s1p pattern {311/1}

Atom   0C    basis set group =>   1
Atom   1O    basis set group =>   2
Atom   2H    basis set group =>   3
Atom   3H    basis set group =>   3
Atom   4H    basis set group =>   3
Atom   5H    basis set group =>   3


           ************************************************************
           *        Program running with 8 parallel MPI-processes     *
           *              working on a common directory               *
           ************************************************************
------------------------------------------------------------------------------
                           ORCA GTO INTEGRAL CALCULATION
------------------------------------------------------------------------------

                         BASIS SET STATISTICS AND STARTUP INFO

 # of primitive gaussian shells          ...   64
 # of primitive gaussian functions       ...  124
 # of contracted shells                  ...   38
 # of contracted basis functions         ...   86
 Highest angular momentum                ...    3
 Maximum contraction depth               ...    6
 Integral package used                   ... LIBINT
 Integral threshhold            Thresh   ...  2.500e-11
 Primitive cut-off              TCut     ...  2.500e-12


------------------------------ INTEGRAL EVALUATION ----------------------------


 * One electron integrals 
 Pre-screening matrix                    ... done
 Shell pair data                         ... done (   0.000 sec)



           ************************************************************
           *        Program running with 8 parallel MPI-processes     *
           *              working on a common directory               *
           ************************************************************
-------------------------------------------------------------------------------
                                 ORCA SCF
-------------------------------------------------------------------------------

------------
SCF SETTINGS
------------
Hamiltonian:
 Density Functional     Method          .... DFT(GTOs)
 Exchange Functional    Exchange        .... WB97X-D3
 Correlation Functional Correlation     .... WB97X-D3
 Gradients option       PostSCFGGA      .... off
 Hybrid DFT is turned on
   Fraction HF Exchange ScalHFX         ....  0.195728
   Scaling of DF-GGA-X  ScalDFX         ....  0.000000
   Scaling of DF-GGA-C  ScalDFC         ....  1.000000
   Scaling of DF-LDA-C  ScalLDAC        ....  1.000000
   Perturbative correction              ....  0.000000
   Density functional embedding theory  .... OFF
 Long-range corrected/Screened/Range-Separated Hybrid DFT is turned on
   Amount of maximum screened exact exchange              ....  0.804272
   Range separation parameter mu (erf(mu*r12)/r12)        ....  0.250000


General Settings:
 Integral files         IntName         .... 9_charges
 Hartree-Fock type      HFTyp           .... RHF
 Total Charge           Charge          ....    0
 Multiplicity           Mult            ....    1
 Number of Electrons    NEL             ....   18
 Basis Dimension        Dim             ....   86
 Nuclear Repulsion      ENuc            ....     40.7214224254 Eh

Convergence Acceleration:
 DIIS                   CNVDIIS         .... on
   Start iteration      DIISMaxIt       ....    12
   Startup error        DIISStart       ....  0.200000
   # of expansion vecs  DIISMaxEq       ....     5
   Bias factor          DIISBfac        ....   1.050
   Max. coefficient     DIISMaxC        ....  10.000
 Newton-Raphson         CNVNR           .... off
 SOSCF                  CNVSOSCF        .... on
   Start iteration      SOSCFMaxIt      ....   150
   Startup grad/error   SOSCFStart      ....  0.003300
 Level Shifting         CNVShift        .... on
   Level shift para.    LevelShift      ....    0.2500
   Turn off err/grad.   ShiftErr        ....    0.0010
 Zerner damping         CNVZerner       .... off
 Static damping         CNVDamp         .... on
   Fraction old density DampFac         ....    0.7000
   Max. Damping (<1)    DampMax         ....    0.9800
   Min. Damping (>=0)   DampMin         ....    0.0000
   Turn off err/grad.   DampErr         ....    0.1000
 Fernandez-Rico         CNVRico         .... off

SCF Procedure:
 Maximum # iterations   MaxIter         ....  1000
 SCF integral mode      SCFMode         .... Direct
   Integral package                     .... LIBINT
 Reset frequency        DirectResetFreq ....    20
 Integral Threshold     Thresh          ....  2.500e-11 Eh
 Primitive CutOff       TCut            ....  2.500e-12 Eh

Convergence Tolerance:
 Convergence Check Mode ConvCheckMode   .... Total+1el-Energy
 Convergence forced     ConvForced      .... 0
 Energy Change          TolE            ....  1.000e-08 Eh
 1-El. energy change                    ....  1.000e-05 Eh
 Orbital Gradient       TolG            ....  1.000e-05
 Orbital Rotation angle TolX            ....  1.000e-05
 DIIS Error             TolErr          ....  5.000e-07


Diagonalization of the overlap matrix:
Smallest eigenvalue                        ... 1.623e-03
Time for diagonalization                   ...    0.328 sec
Threshold for overlap eigenvalues          ... 1.000e-08
Number of eigenvalues below threshold      ... 0
Time for construction of square roots      ...    0.622 sec
Total time needed                          ...    0.950 sec

-------------------
DFT GRID GENERATION
-------------------

General Integration Accuracy     IntAcc      ...  4.340
Radial Grid Type                 RadialGrid  ... Gauss-Chebyshev
Angular Grid (max. acc.)         AngularGrid ... Lebedev-110
Angular grid pruning method      GridPruning ... 3 (G Style)
Weight generation scheme         WeightScheme... Becke
Basis function cutoff            BFCut       ...    1.0000e-11
Integration weight cutoff        WCut        ...    1.0000e-14
Grids for H and He will be reduced by one unit

# of grid points (after initial pruning)     ...   6548 (   0.0 sec)
# of grid points (after weights+screening)   ...   6378 (   0.2 sec)
nearest neighbour list constructed           ...    0.0 sec
Grid point re-assignment to atoms done       ...    0.0 sec
Grid point division into batches done        ...    0.0 sec
Reduced shell lists constructed in    0.0 sec

Total number of grid points                  ...     6378
Total number of batches                      ...      103
Average number of points per batch           ...       61
Average number of grid points per atom       ...     1063
Average number of shells per batch           ...    31.71 (83.46%)
Average number of basis functions per batch  ...    72.57 (84.39%)
Average number of large shells per batch     ...    30.79 (97.07%)
Average number of large basis fcns per batch ...    70.36 (96.95%)
Maximum spatial batch extension              ...  16.03, 13.71, 15.87 au
Average spatial batch extension              ...   0.43,  0.39,  0.44 au

Time for grid setup =    2.306 sec

------------------------------
INITIAL GUESS: MODEL POTENTIAL
------------------------------
Loading Hartree-Fock densities                     ... done
Calculating cut-offs                               ... done
Setting up the integral package                    ... done
Initializing the effective Hamiltonian             ... done
Starting the Coulomb interaction                   ... done (   0.0 sec)
Reading the grid                                   ... done
Mapping shells                                     ... done
Starting the XC term evaluation                    ... done (   0.1 sec)
  promolecular density results
     # of electrons  =     17.998554571
     EX              =    -14.439171551
     EC              =     -0.576953573
     EX+EC           =    -15.016125124
Transforming the Hamiltonian                       ... done (   0.0 sec)
Diagonalizing the Hamiltonian                      ... done (   0.2 sec)
Back transforming the eigenvectors                 ... done (   0.0 sec)
Now organizing SCF variables                       ... done
                      ------------------
                      INITIAL GUESS DONE (   3.6 sec)
                      ------------------
--------------
SCF ITERATIONS
--------------
ITER       Energy         Delta-E        Max-DP      RMS-DP      [F,P]     Damp
               ***  Starting incremental Fock matrix formation  ***
  0   -115.6432202856   0.000000000000 0.03691232  0.00151536  0.2483134 0.7000
  1   -115.6809932089  -0.037772923262 0.02175549  0.00107375  0.1237606 0.7000
                               ***Turning on DIIS***
  2   -115.6984084806  -0.017415271775 0.03046564  0.00193306  0.0475568 0.0000
  3   -115.7267294030  -0.028320922399 0.01741875  0.00070495  0.0607641 0.0000
  4   -115.7313204459  -0.004591042906 0.00426994  0.00013944  0.0064299 0.0000
                      *** Initiating the SOSCF procedure ***
                           *** Shutting down DIIS ***
                      *** Re-Reading the Fockian *** 
                      *** Removing any level shift *** 
ITER      Energy       Delta-E        Grad      Rot      Max-DP    RMS-DP
  5   -115.73141886  -0.0000984145  0.000461  0.000461  0.000726  0.000047
               *** Restarting incremental Fock matrix formation ***
  6   -115.73142748  -0.0000086208  0.000165  0.000233  0.000492  0.000029
  7   -115.73142829  -0.0000008128  0.000047  0.000124  0.000230  0.000013
  8   -115.73142837  -0.0000000713  0.000016  0.000016  0.000023  0.000001
  9   -115.73142837  -0.0000000034  0.000011  0.000008  0.000010  0.000001
                  ***Gradient check signals convergence***
              ***Rediagonalizing the Fockian in SOSCF/NRSCF***

               *****************************************************
               *                     SUCCESS                       *
               *           SCF CONVERGED AFTER  10 CYCLES          *
               *****************************************************

Setting up the final grid:

General Integration Accuracy     IntAcc      ...  4.670
Radial Grid Type                 RadialGrid  ... Gauss-Chebyshev
Angular Grid (max. acc.)         AngularGrid ... Lebedev-302
Angular grid pruning method      GridPruning ... 3 (G Style)
Weight generation scheme         WeightScheme... Becke
Basis function cutoff            BFCut       ...    1.0000e-11
Integration weight cutoff        WCut        ...    1.0000e-14
Grids for H and He will be reduced by one unit

# of grid points (after initial pruning)     ...  26000 (   0.0 sec)
# of grid points (after weights+screening)   ...  25195 (   0.0 sec)
nearest neighbour list constructed           ...    0.0 sec
Grid point re-assignment to atoms done       ...    0.0 sec
Grid point division into batches done        ...    0.3 sec
Reduced shell lists constructed in    0.3 sec

Total number of grid points                  ...    25195
Total number of batches                      ...      397
Average number of points per batch           ...       63
Average number of grid points per atom       ...     4199
Average number of shells per batch           ...    31.29 (82.35%)
Average number of basis functions per batch  ...    71.69 (83.36%)
Average number of large shells per batch     ...    29.88 (95.49%)
Average number of large basis fcns per batch ...    68.78 (95.95%)
Maximum spatial batch extension              ...  14.72, 15.22, 13.89 au
Average spatial batch extension              ...   0.30,  0.29,  0.30 au

Final grid set up in    0.8 sec
Final integration                            ... done (   0.2 sec)
Change in XC energy                          ...    -0.000225738
Integrated number of electrons               ...    18.000003063
Previous integrated no of electrons          ...    18.000126281

----------------
TOTAL SCF ENERGY
----------------

Total Energy       :         -115.73165411 Eh           -3149.21841 eV

Components:
Nuclear Repulsion  :           40.72142243 Eh            1108.08624 eV
Electronic Energy  :         -156.45307653 Eh           -4257.30465 eV
One Electron Energy:         -237.83201552 Eh           -6471.73816 eV
Two Electron Energy:           81.37893899 Eh            2214.43351 eV

Virial components:
Potential Energy   :         -231.07592310 Eh           -6287.89554 eV
Kinetic Energy     :          115.34426899 Eh            3138.67713 eV
Virial Ratio       :            2.00335851


DFT components:
N(Alpha)           :        9.000001531401 electrons
N(Beta)            :        9.000001531401 electrons
N(Total)           :       18.000003062802 electrons
E(XC)              :      -10.670656953581 Eh       
DFET-embed. en.    :        0.000000000000 Eh       

---------------
SCF CONVERGENCE
---------------

  Last Energy change         ...   -1.4107e-09  Tolerance :   1.0000e-08
  Last MAX-Density change    ...    2.4095e-06  Tolerance :   1.0000e-07
  Last RMS-Density change    ...    1.4928e-07  Tolerance :   5.0000e-09
  Last Orbital Gradient      ...    2.4981e-06  Tolerance :   1.0000e-05
  Last Orbital Rotation      ...    1.9192e-06  Tolerance :   1.0000e-05

             **** THE GBW FILE WAS UPDATED (9_charges.gbw) ****
             **** DENSITY FILE WAS UPDATED (9_charges.scfp.tmp) ****
             **** ENERGY FILE WAS UPDATED (9_charges.en.tmp) ****
----------------
ORBITAL ENERGIES
----------------

  NO   OCC          E(Eh)            E(eV) 
   0   2.0000     -19.225587      -523.1548 
   1   2.0000     -10.309683      -280.5407 
   2   2.0000      -1.140723       -31.0407 
   3   2.0000      -0.792897       -21.5758 
   4   2.0000      -0.613724       -16.7003 
   5   2.0000      -0.545326       -14.8391 
   6   2.0000      -0.526553       -14.3282 
   7   2.0000      -0.440610       -11.9896 
   8   2.0000      -0.371458       -10.1079 
   9   0.0000       0.112098         3.0503 
  10   0.0000       0.161909         4.4058 
  11   0.0000       0.195272         5.3136 
  12   0.0000       0.207752         5.6532 
  13   0.0000       0.238040         6.4774 
  14   0.0000       0.297928         8.1070 
  15   0.0000       0.303461         8.2576 
  16   0.0000       0.400660        10.9025 
  17   0.0000       0.440952        11.9989 
  18   0.0000       0.492370        13.3981 
  19   0.0000       0.534373        14.5410 
  20   0.0000       0.552540        15.0354 
  21   0.0000       0.573195        15.5974 
  22   0.0000       0.601433        16.3658 
  23   0.0000       0.613313        16.6891 
  24   0.0000       0.699128        19.0243 
  25   0.0000       0.755123        20.5480 
  26   0.0000       0.794114        21.6089 
  27   0.0000       0.869876        23.6705 
  28   0.0000       0.978211        26.6185 
  29   0.0000       1.047668        28.5085 
  30   0.0000       1.114008        30.3137 
  31   0.0000       1.363984        37.1159 
  32   0.0000       1.462775        39.8041 
  33   0.0000       1.540605        41.9220 
  34   0.0000       1.608032        43.7568 
  35   0.0000       1.633990        44.4631 
  36   0.0000       1.653693        44.9993 
  37   0.0000       1.678091        45.6632 
  38   0.0000       1.701816        46.3088 
  39   0.0000       1.753396        47.7123 
  40   0.0000       1.942956        52.8705 
  41   0.0000       2.032712        55.3129 
  42   0.0000       2.057235        55.9802 
  43   0.0000       2.087472        56.8030 
  44   0.0000       2.190123        59.5963 
  45   0.0000       2.236434        60.8565 
  46   0.0000       2.299936        62.5844 
  47   0.0000       2.368420        64.4480 
  48   0.0000       2.424874        65.9842 
  49   0.0000       2.442272        66.4576 
  50   0.0000       2.528255        68.7973 
  51   0.0000       2.556198        69.5577 
  52   0.0000       2.630078        71.5681 
  53   0.0000       2.678379        72.8824 
  54   0.0000       2.824957        76.8710 
  55   0.0000       2.882321        78.4319 
  56   0.0000       2.942767        80.0768 
  57   0.0000       2.993278        81.4512 
  58   0.0000       3.103011        84.4372 
  59   0.0000       3.204192        87.1905 
  60   0.0000       3.310033        90.0706 
  61   0.0000       3.451524        93.9207 
  62   0.0000       3.458777        94.1181 
  63   0.0000       3.534107        96.1679 
  64   0.0000       3.602354        98.0250 
  65   0.0000       3.631144        98.8085 
  66   0.0000       3.650048        99.3229 
  67   0.0000       4.028377       109.6177 
  68   0.0000       4.210896       114.5843 
  69   0.0000       4.327751       117.7641 
  70   0.0000       4.529618       123.2572 
  71   0.0000       4.534946       123.4022 
  72   0.0000       5.371232       146.1587 
  73   0.0000       5.464538       148.6976 
  74   0.0000       5.543478       150.8457 
  75   0.0000       5.745527       156.3437 
  76   0.0000       5.832855       158.7200 
  77   0.0000       6.017235       163.7373 
  78   0.0000       6.347216       172.7165 
  79   0.0000       6.536350       177.8631 
  80   0.0000       6.811449       185.3490 
  81   0.0000       6.835677       186.0082 
  82   0.0000       7.017163       190.9467 
  83   0.0000       7.213323       196.2845 
  84   0.0000      22.430398       610.3622 
  85   0.0000      43.665737      1188.2051 

                    ********************************
                    * MULLIKEN POPULATION ANALYSIS *
                    ********************************

-----------------------
MULLIKEN ATOMIC CHARGES
-----------------------
   0 C :   -0.163995
   1 O :   -0.464843
   2 H :    0.309897
   3 H :    0.103615
   4 H :    0.113064
   5 H :    0.102262
Sum of atomic charges:    0.0000000

--------------------------------
MULLIKEN REDUCED ORBITAL CHARGES
--------------------------------
  0 C s       :     3.229904  s :     3.229904
      pz      :     1.037075  p :     2.826875
      px      :     0.900594
      py      :     0.889206
      dz2     :     0.004550  d :     0.099377
      dxz     :     0.019252
      dyz     :     0.028053
      dx2y2   :     0.029802
      dxy     :     0.017720
      f0      :     0.000513  f :     0.007839
      f+1     :     0.001002
      f-1     :     0.000815
      f+2     :     0.000296
      f-2     :     0.002121
      f+3     :     0.001141
      f-3     :     0.001952
  1 O s       :     3.802145  s :     3.802145
      pz      :     1.637802  p :     4.629608
      px      :     1.673387
      py      :     1.318419
      dz2     :     0.003881  d :     0.031449
      dxz     :     0.005244
      dyz     :     0.009924
      dx2y2   :     0.004452
      dxy     :     0.007949
      f0      :     0.000140  f :     0.001642
      f+1     :     0.000123
      f-1     :     0.000276
      f+2     :     0.000296
      f-2     :     0.000309
      f+3     :     0.000302
      f-3     :     0.000195
  2 H s       :     0.640498  s :     0.640498
      pz      :     0.017813  p :     0.049605
      px      :     0.015192
      py      :     0.016600
  3 H s       :     0.876854  s :     0.876854
      pz      :     0.005722  p :     0.019532
      px      :     0.005911
      py      :     0.007899
  4 H s       :     0.866668  s :     0.866668
      pz      :     0.009588  p :     0.020268
      px      :     0.005644
      py      :     0.005036
  5 H s       :     0.877603  s :     0.877603
      pz      :     0.007478  p :     0.020135
      px      :     0.007873
      py      :     0.004783


                     *******************************
                     * LOEWDIN POPULATION ANALYSIS *
                     *******************************

----------------------
LOEWDIN ATOMIC CHARGES
----------------------
   0 C :   -0.375805
   1 O :   -0.079640
   2 H :    0.163588
   3 H :    0.101835
   4 H :    0.099739
   5 H :    0.090282

-------------------------------
LOEWDIN REDUCED ORBITAL CHARGES
-------------------------------
  0 C s       :     2.863164  s :     2.863164
      pz      :     1.086649  p :     3.046950
      px      :     0.997772
      py      :     0.962529
      dz2     :     0.027934  d :     0.407441
      dxz     :     0.085925
      dyz     :     0.101228
      dx2y2   :     0.088618
      dxy     :     0.103736
      f0      :     0.006154  f :     0.058249
      f+1     :     0.006108
      f-1     :     0.007174
      f+2     :     0.002609
      f-2     :     0.010114
      f+3     :     0.010738
      f-3     :     0.015352
  1 O s       :     3.374393  s :     3.374393
      pz      :     1.620685  p :     4.628775
      px      :     1.659866
      py      :     1.348224
      dz2     :     0.006301  d :     0.071530
      dxz     :     0.008613
      dyz     :     0.023225
      dx2y2   :     0.015966
      dxy     :     0.017425
      f0      :     0.000342  f :     0.004942
      f+1     :     0.000324
      f-1     :     0.000799
      f+2     :     0.000744
      f-2     :     0.001124
      f+3     :     0.000842
      f-3     :     0.000767
  2 H s       :     0.673150  s :     0.673150
      pz      :     0.065260  p :     0.163262
      px      :     0.045713
      py      :     0.052289
  3 H s       :     0.840839  s :     0.840839
      pz      :     0.017203  p :     0.057326
      px      :     0.017938
      py      :     0.022185
  4 H s       :     0.838664  s :     0.838664
      pz      :     0.029889  p :     0.061596
      px      :     0.017212
      py      :     0.014495
  5 H s       :     0.844630  s :     0.844630
      pz      :     0.024175  p :     0.065088
      px      :     0.024861
      py      :     0.016053


                      *****************************
                      * MAYER POPULATION ANALYSIS *
                      *****************************

  NA   - Mulliken gross atomic population
  ZA   - Total nuclear charge
  QA   - Mulliken gross atomic charge
  VA   - Mayer's total valence
  BVA  - Mayer's bonded valence
  FA   - Mayer's free valence

  ATOM       NA         ZA         QA         VA         BVA        FA
  0 C      6.1640     6.0000    -0.1640     3.9590     3.9590     0.0000
  1 O      8.4648     8.0000    -0.4648     1.8843     1.8843     0.0000
  2 H      0.6901     1.0000     0.3099     0.9167     0.9167     0.0000
  3 H      0.8964     1.0000     0.1036     0.9564     0.9564     0.0000
  4 H      0.8869     1.0000     0.1131     0.9558     0.9558    -0.0000
  5 H      0.8977     1.0000     0.1023     0.9650     0.9650     0.0000

  Mayer bond orders larger than 0.1
B(  0-C ,  1-O ) :   1.0053 B(  0-C ,  3-H ) :   0.9765 B(  0-C ,  4-H ) :   0.9744 
B(  0-C ,  5-H ) :   0.9934 B(  1-O ,  2-H ) :   0.9096 


------------------
HIRSHFELD ANALYSIS
------------------

Total integrated alpha density =      9.000063141
Total integrated beta density  =      9.000063141

  ATOM     CHARGE      SPIN    
   0 C    0.006666    0.000000
   1 O   -0.254567    0.000000
   2 H    0.154755    0.000000
   3 H    0.026899    0.000000
   4 H    0.035905    0.000000
   5 H    0.030216    0.000000

  TOTAL  -0.000126    0.000000

-------
TIMINGS
-------

Total SCF time: 0 days 0 hours 0 min 28 sec 

Total time                  ....      28.726 sec
Sum of individual times     ....      24.316 sec  ( 84.6%)

Fock matrix formation       ....      16.556 sec  ( 57.6%)
  XC integration            ....       3.510 sec  ( 21.2% of F)
    Basis function eval.    ....       0.060 sec  (  1.7% of XC)
    Density eval.           ....       0.047 sec  (  1.3% of XC)
    XC-Functional eval.     ....       0.075 sec  (  2.1% of XC)
    XC-Potential eval.      ....       0.032 sec  (  0.9% of XC)
Diagonalization             ....       1.318 sec  (  4.6%)
Density matrix formation    ....       1.251 sec  (  4.4%)
Population analysis         ....       0.127 sec  (  0.4%)
Initial guess               ....       1.308 sec  (  4.6%)
Orbital Transformation      ....       0.000 sec  (  0.0%)
Orbital Orthonormalization  ....       0.000 sec  (  0.0%)
DIIS solution               ....       0.270 sec  (  0.9%)
SOSCF solution              ....       0.338 sec  (  1.2%)
Grid generation             ....       3.147 sec  ( 11.0%)


-------------------------------------------------------------------------------
                          DFT DISPERSION CORRECTION                            
                                                                               
                              DFTD3 V3.1  Rev 1                                
                              USING zero damping                               
-------------------------------------------------------------------------------
The omegaB97X-D3 functional is recognized. Fit by Chai et al.
Active option DFTDOPT                   ...         3   

molecular C6(AA) [au] = 208.619486 


            DFT-D V3
 parameters
 s6 scaling factor         :     1.0000 
 rs6 scaling factor        :     1.2810 
 s8 scaling factor         :     1.0000 
 rs8 scaling factor        :     1.0940 
 Damping factor alpha6     :    14.0000 
 Damping factor alpha8     :    16.0000 
 ad hoc parameters k1-k3   :    16.0000     1.3333    -4.0000 

 Edisp/kcal,au: -0.132747408752  -0.000211546439 
 E6   /kcal   :  -0.023740670 
 E8   /kcal   :  -0.109006739 
 % E8         :  82.115906925 

-------------------------   ----------------
Dispersion correction           -0.000211546
-------------------------   ----------------


-------------------------   --------------------
FINAL SINGLE POINT ENERGY      -115.731865654613
-------------------------   --------------------


                            ***************************************
                            *     ORCA property calculations      *
                            ***************************************

                                    ---------------------
                                    Active property flags
                                    ---------------------
   (+) Dipole Moment


------------------------------------------------------------------------------
                       ORCA ELECTRIC PROPERTIES CALCULATION
------------------------------------------------------------------------------

Dipole Moment Calculation                       ... on
Quadrupole Moment Calculation                   ... off
Polarizability Calculation                      ... off
GBWName                                         ... 9_charges.gbw
Electron density file                           ... 9_charges.scfp.tmp
The origin for moment calculation is the CENTER OF MASS  = (-14.473810, -20.835345  9.549931)

-------------
DIPOLE MOMENT
-------------
                                X             Y             Z
Electronic contribution:     -1.08942       1.18892      -0.61075
Nuclear contribution   :      1.59577      -1.15315       1.15743
                        -----------------------------------------
Total Dipole Moment    :      0.50635       0.03577       0.54668
                        -----------------------------------------
Magnitude (a.u.)       :      0.74602
Magnitude (Debye)      :      1.89622



--------------------
Rotational spectrum 
--------------------
 
Rotational constants in cm-1:     4.202346     0.849733     0.820865 
Rotational constants in MHz : 125983.154269 25474.352463 24608.910633 

 Dipole components along the rotational axes: 
x,y,z [a.u.] :    -0.399538     0.629674    -0.020493 
x,y,z [Debye]:    -1.015544     1.600503    -0.052088 

 
------------------------------------------------------------------------------
                      ORCA CHELPG CHARGES GENERATION
------------------------------------------------------------------------------

GBW file                           ... 9_charges.gbw

Reading the GBW file               ... done

Grid spacing                       ...     0.300000
Point Cut-Off                      ...     2.800000
Van-der-Waals Radii                ...        COSMO
Total charge                       ...            0


Number of points X direction       ...           23
Number of points Y direction       ...           26
Number of points Z direction       ...           23
Maximum number of possible points  ...        13754
Final number of points             ...         5721


CHELPG Charges            
--------------------------------
  0   C   :       0.041141
  1   O   :      -0.576764
  2   H   :       0.391469
  3   H   :       0.046180
  4   H   :       0.073326
  5   H   :       0.024647
--------------------------------
Total charge:    -0.000000
--------------------------------

CHELPG charges calculated...

Timings for individual parts in CHELPG calculation:
Grid generation                 ...        0.001 sec (=   0.000 min)
Potential calculation           ...        0.628 sec (=   0.010 min)
Fit to the potential            ...        0.001 sec (=   0.000 min)
------------------------------------------------------------------------------


Timings for individual modules:

Sum of individual times         ...       38.399 sec (=   0.640 min)
GTO integral calculation        ...        5.335 sec (=   0.089 min)  13.9 %
SCF iterations                  ...       32.313 sec (=   0.539 min)  84.2 %
CHELPG charge generation        ...        0.750 sec (=   0.012 min)   2.0 %
                             ****ORCA TERMINATED NORMALLY****
TOTAL RUN TIME: 0 days 0 hours 0 minutes 41 seconds 223 msec
