
                                 *****************
                                 * O   R   C   A *
                                 *****************

           --- An Ab Initio, DFT and Semiempirical electronic structure package ---

                  #######################################################
                  #                        -***-                        #
                  #          Department of theory and spectroscopy      #
                  #               Directorship: Frank Neese             #
                  #        Max Planck Institute fuer Kohlenforschung    #
                  #                Kaiser Wilhelm Platz 1               #
                  #                 D-45470 Muelheim/Ruhr               #
                  #                      Germany                        #
                  #                                                     #
                  #                  All rights reserved                #
                  #                        -***-                        #
                  #######################################################


                         Program Version 4.1.2  - RELEASE  -


 With contributions from (in alphabetic order):
   Daniel Aravena         : Magnetic Properties
   Michael Atanasov       : Ab Initio Ligand Field Theory
   Alexander A. Auer      : GIAO ZORA
   Ute Becker             : Parallelization
   Giovanni Bistoni       : ED, Open-shell LED
   Martin Brehm           : Molecular dynamics
   Dmytro Bykov           : SCF Hessian
   Vijay G. Chilkuri      : MRCI spin determinant printing
   Dipayan Datta          : RHF DLPNO-CCSD density
   Achintya Kumar Dutta   : EOM-CC, STEOM-CC
   Dmitry Ganyushin       : Spin-Orbit,Spin-Spin,Magnetic field MRCI
   Miquel Garcia          : C-PCM Hessian
   Yang Guo               : DLPNO-NEVPT2, CIM, IAO-localization
   Andreas Hansen         : Spin unrestricted coupled pair/coupled cluster methods
   Benjamin Helmich-Paris : CASSCF linear response (MC-RPA)
   Lee Huntington         : MR-EOM, pCC
   Robert Izsak           : Overlap fitted RIJCOSX, COSX-SCS-MP3, EOM
   Christian Kollmar      : KDIIS, OOCD, Brueckner-CCSD(T), CCSD density
   Simone Kossmann        : Meta GGA functionals, TD-DFT gradient, OOMP2, MP2 Hessian
   Martin Krupicka        : AUTO-CI
   Lucas Lang             : DCDCAS
   Dagmar Lenk            : GEPOL surface, SMD
   Dimitrios Liakos       : Extrapolation schemes; parallel MDCI
   Dimitrios Manganas     : ROCIS; embedding schemes
   Dimitrios Pantazis     : SARC Basis sets
   Taras Petrenko         : DFT Hessian,TD-DFT gradient, ASA, ECA, R-Raman, ABS, FL, XAS/XES, NRVS
   Peter Pinski           : DLPNO-MP2, DLPNO-MP2 Gradient
   Christoph Reimann      : Effective Core Potentials
   Marius Retegan         : Local ZFS, SOC
   Christoph Riplinger    : Optimizer, TS searches, QM/MM, DLPNO-CCSD(T), (RO)-DLPNO pert. Triples
   Tobias Risthaus        : Range-separated hybrids, TD-DFT gradient, RPA, STAB
   Michael Roemelt        : Restricted open shell CIS
   Masaaki Saitow         : Open-shell DLPNO
   Barbara Sandhoefer     : DKH picture change effects
   Avijit Sen             : IP-ROCIS
   Kantharuban Sivalingam : CASSCF convergence, NEVPT2, FIC-MRCI
   Bernardo de Souza      : ESD, SOC TD-DFT
   Georgi Stoychev        : AutoAux, RI-MP2 NMR
   Willem Van den Heuvel  : Paramagnetic NMR
   Boris Wezisla          : Elementary symmetry handling
   Frank Wennmohs         : Technical directorship


 We gratefully acknowledge several colleagues who have allowed us to
 interface, adapt or use parts of their codes:
   Stefan Grimme, W. Hujo, H. Kruse,             : VdW corrections, initial TS optimization,
                  C. Bannwarth                     DFT functionals, gCP, sTDA/sTD-DF
   Ed Valeev                                     : LibInt (2-el integral package), F12 methods
   Garnet Chan, S. Sharma, J. Yang, R. Olivares  : DMRG
   Ulf Ekstrom                                   : XCFun DFT Library
   Mihaly Kallay                                 : mrcc  (arbitrary order and MRCC methods)
   Andreas Klamt, Michael Diedenhofen            : otool_cosmo (COSMO solvation model)
   Jiri Pittner, Ondrej Demel                    : Mk-CCSD
   Frank Weinhold                                : gennbo (NPA and NBO analysis)
   Christopher J. Cramer and Donald G. Truhlar   : smd solvation model
   Lars Goerigk                                  : TD-DFT with DH, B97 family of functionals
   V. Asgeirsson, H. Jonsson                     : NEB implementation
   FAccTs GmbH                                   : IRC, NEB, NEB-TS, Multilevel


 Your calculation uses the libint2 library for the computation of 2-el integrals
 For citations please refer to: http://libint.valeyev.net

 This ORCA versions uses:
   CBLAS   interface :  Fast vector & matrix operations
   LAPACKE interface :  Fast linear algebra routines
   SCALAPACK package :  Parallel linear algebra routines


Your calculation utilizes the atom-pairwise dispersion correction
with the zero-damping scheme (D30)
Cite in your paper:
S.Grimme, J.Antony, S.Ehrlich and H.Krieg, J.Chem.Phys., 132, (2010), 154104 
   

XCFun DFT library Copyright 2009-2010 Ulf Ekstrom and contributors.
See http://admol.org/xcfun for more information. This is free soft-
ware; see the source code for copying conditions. There is ABSOLUTELY
NO WARRANTY; not even for MERCHANTABILITY or FITNESS FOR A PARTICULAR
PURPOSE. For details see the documentation. Scientific users of this 
library should cite U. Ekstrom, L. Visscher, R. Bast, A. J. Thorvald-
sen and K. Ruud; J.Chem.Theor.Comp. 2010, DOI: 10.1021/ct100117s
XCFun Version 0.99 
----- Orbital basis set information -----
Your calculation utilizes the basis: def2-TZVP
   F. Weigend and R. Ahlrichs, Phys. Chem. Chem. Phys. 7, 3297 (2005).

================================================================================
                                        WARNINGS
                       Please study these warnings very carefully!
================================================================================


INFO   : the flag for use of LIBINT has been found!

Your calculation utilizes the atom-pairwise dispersion correction
with the zero-damping scheme (D30)
Cite in your paper:
S.Grimme, J.Antony, S.Ehrlich and H.Krieg, J.Chem.Phys., 132, (2010), 154104 
   

XCFun DFT library Copyright 2009-2010 Ulf Ekstrom and contributors.
See http://admol.org/xcfun for more information. This is free soft-
ware; see the source code for copying conditions. There is ABSOLUTELY
NO WARRANTY; not even for MERCHANTABILITY or FITNESS FOR A PARTICULAR
PURPOSE. For details see the documentation. Scientific users of this 
library should cite U. Ekstrom, L. Visscher, R. Bast, A. J. Thorvald-
sen and K. Ruud; J.Chem.Theor.Comp. 2010, DOI: 10.1021/ct100117s
XCFun Version 0.99 
----- Orbital basis set information -----
Your calculation utilizes the basis: def2-TZVP
   F. Weigend and R. Ahlrichs, Phys. Chem. Chem. Phys. 7, 3297 (2005).

================================================================================
                                        WARNINGS
                       Please study these warnings very carefully!
================================================================================


WARNING: MOInp is set but Guess=PModel. MOInp will be ignored!
         To read the initial guess from a file you must also specify
         'MORead' in the simple input or 'Guess MORead' in the %scf block


INFO   : the flag for use of LIBINT has been found!

Your calculation utilizes the atom-pairwise dispersion correction
with the zero-damping scheme (D30)
Cite in your paper:
S.Grimme, J.Antony, S.Ehrlich and H.Krieg, J.Chem.Phys., 132, (2010), 154104 
   

XCFun DFT library Copyright 2009-2010 Ulf Ekstrom and contributors.
See http://admol.org/xcfun for more information. This is free soft-
ware; see the source code for copying conditions. There is ABSOLUTELY
NO WARRANTY; not even for MERCHANTABILITY or FITNESS FOR A PARTICULAR
PURPOSE. For details see the documentation. Scientific users of this 
library should cite U. Ekstrom, L. Visscher, R. Bast, A. J. Thorvald-
sen and K. Ruud; J.Chem.Theor.Comp. 2010, DOI: 10.1021/ct100117s
XCFun Version 0.99 
----- Orbital basis set information -----
Your calculation utilizes the basis: def2-TZVP
   F. Weigend and R. Ahlrichs, Phys. Chem. Chem. Phys. 7, 3297 (2005).

================================================================================
                                        WARNINGS
                       Please study these warnings very carefully!
================================================================================


WARNING: MOInp is set but Guess=PModel. MOInp will be ignored!
         To read the initial guess from a file you must also specify
         'MORead' in the simple input or 'Guess MORead' in the %scf block


INFO   : the flag for use of LIBINT has been found!

================================================================================
                                       INPUT FILE
================================================================================
NAME = 5-103.in
|  1> #Run DFT-D3 single point of the dimer
|  2> ! wB97X-D3 def2-TZVP TIGHTSCF CHELPG PMODEL PAL8
|  3> 
|  4> %base "5-103_DFT_AB"
|  5> 
|  6> %scf
|  7> MaxIter 1000
|  8> end
|  9> 
| 10> * xyz 0 1
| 11>   C                      10.099755            -8.391832            7.426089            
| 12>   O                      8.932273             -9.123837            7.036020            
| 13>   H                      9.240936             -10.078565           7.004083            
| 14>   H                      10.500209            -8.720719            8.378348            
| 15>   H                      10.929111            -8.689775            6.786376            
| 16>   H                      9.978572             -7.339789            7.447551            
| 17>   C                      6.029280             -9.175350            9.917710            
| 18>   O                      7.212876             -8.355816            9.850832            
| 19>   H                      7.738320             -8.490723            9.042693            
| 20>   H                      6.303231             -10.242801           9.700826            
| 21>   H                      5.373470             -9.245646            10.809039           
| 22>   H                      5.365920             -8.959489            9.043971            
| 23> *
| 24> 
| 25> #Run DFT-D3 single point of the molecule with dimer basis set
| 26> $new_job
| 27> %base "5-103_DFT_A"
| 28> ! wB97X-D3 def2-TZVP TIGHTSCF CHELPG PMODEL
| 29> 
| 30> %scf
| 31> MaxIter 1000
| 32> end
| 33> 
| 34> * xyz 0 1
| 35>   C                      10.099755            -8.391832            7.426089            
| 36>   O                      8.932273             -9.123837            7.036020            
| 37>   H                      9.240936             -10.078565           7.004083            
| 38>   H                      10.500209            -8.720719            8.378348            
| 39>   H                      10.929111            -8.689775            6.786376            
| 40>   H                      9.978572             -7.339789            7.447551            
| 41>   C                    : 6.029280             -9.175350            9.917710            
| 42>   O                    : 7.212876             -8.355816            9.850832            
| 43>   H                    : 7.738320             -8.490723            9.042693            
| 44>   H                    : 6.303231             -10.242801           9.700826            
| 45>   H                    : 5.373470             -9.245646            10.809039           
| 46>   H                    : 5.365920             -8.959489            9.043971            
| 47> *
| 48> 
| 49> #Run DFT-D3 single point of the particle with dimer basis set
| 50> $new_job
| 51> %base "5-103_DFT_B"
| 52> ! wB97X-D3 def2-TZVP TIGHTSCF CHELPG PMODEL
| 53> 
| 54> %scf
| 55> MaxIter 1000
| 56> end
| 57> 
| 58> * xyz 0 1
| 59>   C                    : 10.099755            -8.391832            7.426089            
| 60>   O                    : 8.932273             -9.123837            7.036020            
| 61>   H                    : 9.240936             -10.078565           7.004083            
| 62>   H                    : 10.500209            -8.720719            8.378348            
| 63>   H                    : 10.929111            -8.689775            6.786376            
| 64>   H                    : 9.978572             -7.339789            7.447551            
| 65>   C                      6.029280             -9.175350            9.917710            
| 66>   O                      7.212876             -8.355816            9.850832            
| 67>   H                      7.738320             -8.490723            9.042693            
| 68>   H                      6.303231             -10.242801           9.700826            
| 69>   H                      5.373470             -9.245646            10.809039           
| 70>   H                      5.365920             -8.959489            9.043971            
| 71> *
| 72> 
| 73>                          ****END OF INPUT****
================================================================================


                 $$$$$$$$$$$$$$$$$$$$$$$$$$$$$$$$$$$$$$$$$$$$$$ 
                 $ THERE ARE  3 JOBS TO BE PROCESSED THIS RUN $
                 $$$$$$$$$$$$$$$$$$$$$$$$$$$$$$$$$$$$$$$$$$$$$$ 




                 $$$$$$$$$$$$$$$$  JOB NUMBER  1 $$$$$$$$$$$$$$


                       ****************************
                       * Single Point Calculation *
                       ****************************

---------------------------------
CARTESIAN COORDINATES (ANGSTROEM)
---------------------------------
  C     10.099755   -8.391832    7.426089
  O      8.932273   -9.123837    7.036020
  H      9.240936  -10.078565    7.004083
  H     10.500209   -8.720719    8.378348
  H     10.929111   -8.689775    6.786376
  H      9.978572   -7.339789    7.447551
  C      6.029280   -9.175350    9.917710
  O      7.212876   -8.355816    9.850832
  H      7.738320   -8.490723    9.042693
  H      6.303231  -10.242801    9.700826
  H      5.373470   -9.245646   10.809039
  H      5.365920   -8.959489    9.043971

----------------------------
CARTESIAN COORDINATES (A.U.)
----------------------------
  NO LB      ZA    FRAG     MASS         X           Y           Z
   0 C     6.0000    0    12.011   19.085771  -15.858264   14.033274
   1 O     8.0000    0    15.999   16.879550  -17.241553   13.296151
   2 H     1.0000    0     1.008   17.462838  -19.045728   13.235799
   3 H     1.0000    0     1.008   19.842519  -16.479771   15.832783
   4 H     1.0000    0     1.008   20.653027  -16.421295   12.824392
   5 H     1.0000    0     1.008   18.856768  -13.870191   14.073832
   6 C     6.0000    0    12.011   11.393688  -17.338899   18.741756
   7 O     8.0000    0    15.999   13.630360  -15.790204   18.615375
   8 H     1.0000    0     1.008   14.623306  -16.045141   17.088213
   9 H     1.0000    0     1.008   11.911380  -19.356089   18.331904
  10 H     1.0000    0     1.008   10.154387  -17.471739   20.426123
  11 H     1.0000    0     1.008   10.140119  -16.930981   17.090628

--------------------------------
INTERNAL COORDINATES (ANGSTROEM)
--------------------------------
 C      0   0   0     0.000000000000     0.00000000     0.00000000
 O      1   0   0     1.432131057240     0.00000000     0.00000000
 H      2   1   0     1.003891614430   104.12952288     0.00000000
 H      1   2   3     1.084125116380   112.66245709   301.54699792
 H      1   2   3     1.088960113298   108.72418496    49.91249621
 H      1   2   3     1.059216885620   114.82958154   175.94289587
 C      2   1   3     4.090740666837   113.14619576   111.34678162
 O      7   2   1     1.441182894450    51.48918579    12.38378097
 H      8   7   2     0.973334443604   113.76986633     2.79428777
 H      7   2   1     1.123182735470    72.71372094   238.68423191
 H      7   2   1     1.108826257787   170.67405623   308.26197726
 H      7   2   1     1.118061850276    82.42105536   135.46199069

---------------------------
INTERNAL COORDINATES (A.U.)
---------------------------
 C      0   0   0     0.000000000000     0.00000000     0.00000000
 O      1   0   0     2.706335486066     0.00000000     0.00000000
 H      2   1   0     1.897080219412   104.12952288     0.00000000
 H      1   2   3     2.048699564864   112.66245709   301.54699792
 H      1   2   3     2.057836384897   108.72418496    49.91249621
 H      1   2   3     2.001629830246   114.82958154   175.94289587
 C      2   1   3     7.730379545217   113.14619576   111.34678162
 O      7   2   1     2.723440979403    51.48918579    12.38378097
 H      8   7   2     1.839335535124   113.76986633     2.79428777
 H      7   2   1     2.122507768387    72.71372094   238.68423191
 H      7   2   1     2.095377957317   170.67405623   308.26197726
 H      7   2   1     2.112830697806    82.42105536   135.46199069

---------------------
BASIS SET INFORMATION
---------------------
There are 3 groups of distinct atoms

 Group   1 Type C   : 11s6p2d1f contracted to 5s3p2d1f pattern {62111/411/11/1}
 Group   2 Type O   : 11s6p2d1f contracted to 5s3p2d1f pattern {62111/411/11/1}
 Group   3 Type H   : 5s1p contracted to 3s1p pattern {311/1}

Atom   0C    basis set group =>   1
Atom   1O    basis set group =>   2
Atom   2H    basis set group =>   3
Atom   3H    basis set group =>   3
Atom   4H    basis set group =>   3
Atom   5H    basis set group =>   3
Atom   6C    basis set group =>   1
Atom   7O    basis set group =>   2
Atom   8H    basis set group =>   3
Atom   9H    basis set group =>   3
Atom  10H    basis set group =>   3
Atom  11H    basis set group =>   3


           ************************************************************
           *        Program running with 8 parallel MPI-processes     *
           *              working on a common directory               *
           ************************************************************
------------------------------------------------------------------------------
                           ORCA GTO INTEGRAL CALCULATION
------------------------------------------------------------------------------

                         BASIS SET STATISTICS AND STARTUP INFO

 # of primitive gaussian shells          ...  128
 # of primitive gaussian functions       ...  248
 # of contracted shells                  ...   76
 # of contracted basis functions         ...  172
 Highest angular momentum                ...    3
 Maximum contraction depth               ...    6
 Integral package used                   ... LIBINT
 Integral threshhold            Thresh   ...  2.500e-11
 Primitive cut-off              TCut     ...  2.500e-12


------------------------------ INTEGRAL EVALUATION ----------------------------


 * One electron integrals 
 Pre-screening matrix                    ... done
 Shell pair data                         ... done (   0.001 sec)



           ************************************************************
           *        Program running with 8 parallel MPI-processes     *
           *              working on a common directory               *
           ************************************************************
-------------------------------------------------------------------------------
                                 ORCA SCF
-------------------------------------------------------------------------------

------------
SCF SETTINGS
------------
Hamiltonian:
 Density Functional     Method          .... DFT(GTOs)
 Exchange Functional    Exchange        .... WB97X-D3
 Correlation Functional Correlation     .... WB97X-D3
 Gradients option       PostSCFGGA      .... off
 Hybrid DFT is turned on
   Fraction HF Exchange ScalHFX         ....  0.195728
   Scaling of DF-GGA-X  ScalDFX         ....  0.000000
   Scaling of DF-GGA-C  ScalDFC         ....  1.000000
   Scaling of DF-LDA-C  ScalLDAC        ....  1.000000
   Perturbative correction              ....  0.000000
   Density functional embedding theory  .... OFF
 Long-range corrected/Screened/Range-Separated Hybrid DFT is turned on
   Amount of maximum screened exact exchange              ....  0.804272
   Range separation parameter mu (erf(mu*r12)/r12)        ....  0.250000


General Settings:
 Integral files         IntName         .... 5-103_DFT_AB
 Hartree-Fock type      HFTyp           .... RHF
 Total Charge           Charge          ....    0
 Multiplicity           Mult            ....    1
 Number of Electrons    NEL             ....   36
 Basis Dimension        Dim             ....  172
 Nuclear Repulsion      ENuc            ....    122.7734167939 Eh

Convergence Acceleration:
 DIIS                   CNVDIIS         .... on
   Start iteration      DIISMaxIt       ....    12
   Startup error        DIISStart       ....  0.200000
   # of expansion vecs  DIISMaxEq       ....     5
   Bias factor          DIISBfac        ....   1.050
   Max. coefficient     DIISMaxC        ....  10.000
 Newton-Raphson         CNVNR           .... off
 SOSCF                  CNVSOSCF        .... on
   Start iteration      SOSCFMaxIt      ....   150
   Startup grad/error   SOSCFStart      ....  0.003300
 Level Shifting         CNVShift        .... on
   Level shift para.    LevelShift      ....    0.2500
   Turn off err/grad.   ShiftErr        ....    0.0010
 Zerner damping         CNVZerner       .... off
 Static damping         CNVDamp         .... on
   Fraction old density DampFac         ....    0.7000
   Max. Damping (<1)    DampMax         ....    0.9800
   Min. Damping (>=0)   DampMin         ....    0.0000
   Turn off err/grad.   DampErr         ....    0.1000
 Fernandez-Rico         CNVRico         .... off

SCF Procedure:
 Maximum # iterations   MaxIter         ....  1000
 SCF integral mode      SCFMode         .... Direct
   Integral package                     .... LIBINT
 Reset frequency        DirectResetFreq ....    20
 Integral Threshold     Thresh          ....  2.500e-11 Eh
 Primitive CutOff       TCut            ....  2.500e-12 Eh

Convergence Tolerance:
 Convergence Check Mode ConvCheckMode   .... Total+1el-Energy
 Convergence forced     ConvForced      .... 0
 Energy Change          TolE            ....  1.000e-08 Eh
 1-El. energy change                    ....  1.000e-05 Eh
 Orbital Gradient       TolG            ....  1.000e-05
 Orbital Rotation angle TolX            ....  1.000e-05
 DIIS Error             TolErr          ....  5.000e-07


Diagonalization of the overlap matrix:
Smallest eigenvalue                        ... 1.468e-03
Time for diagonalization                   ...    0.042 sec
Threshold for overlap eigenvalues          ... 1.000e-08
Number of eigenvalues below threshold      ... 0
Time for construction of square roots      ...    0.011 sec
Total time needed                          ...    0.053 sec

-------------------
DFT GRID GENERATION
-------------------

General Integration Accuracy     IntAcc      ...  4.340
Radial Grid Type                 RadialGrid  ... Gauss-Chebyshev
Angular Grid (max. acc.)         AngularGrid ... Lebedev-110
Angular grid pruning method      GridPruning ... 3 (G Style)
Weight generation scheme         WeightScheme... Becke
Basis function cutoff            BFCut       ...    1.0000e-11
Integration weight cutoff        WCut        ...    1.0000e-14
Grids for H and He will be reduced by one unit

# of grid points (after initial pruning)     ...  13096 (   0.0 sec)
# of grid points (after weights+screening)   ...  12504 (   0.0 sec)
nearest neighbour list constructed           ...    0.0 sec
Grid point re-assignment to atoms done       ...    0.0 sec
Grid point division into batches done        ...    0.0 sec
Reduced shell lists constructed in    0.0 sec

Total number of grid points                  ...    12504
Total number of batches                      ...      201
Average number of points per batch           ...       62
Average number of grid points per atom       ...     1042
Average number of shells per batch           ...    53.81 (70.81%)
Average number of basis functions per batch  ...   119.52 (69.49%)
Average number of large shells per batch     ...    43.89 (81.56%)
Average number of large basis fcns per batch ...    96.63 (80.85%)
Maximum spatial batch extension              ...  12.26, 10.18, 15.47 au
Average spatial batch extension              ...   0.29,  0.26,  0.33 au

Time for grid setup =    0.075 sec

------------------------------
INITIAL GUESS: MODEL POTENTIAL
------------------------------
Loading Hartree-Fock densities                     ... done
Calculating cut-offs                               ... done
Setting up the integral package                    ... done
Initializing the effective Hamiltonian             ... done
Starting the Coulomb interaction                   ... done (   0.0 sec)
Reading the grid                                   ... done
Mapping shells                                     ... done
Starting the XC term evaluation                    ... done (   0.0 sec)
  promolecular density results
     # of electrons  =     36.006537480
     EX              =    -28.833221067
     EC              =     -1.149192892
     EX+EC           =    -29.982413959
Transforming the Hamiltonian                       ... done (   0.0 sec)
Diagonalizing the Hamiltonian                      ... done (   0.0 sec)
Back transforming the eigenvectors                 ... done (   0.0 sec)
Now organizing SCF variables                       ... done
                      ------------------
                      INITIAL GUESS DONE (   0.2 sec)
                      ------------------
--------------
SCF ITERATIONS
--------------
ITER       Energy         Delta-E        Max-DP      RMS-DP      [F,P]     Damp
               ***  Starting incremental Fock matrix formation  ***
  0   -231.2974731094   0.000000000000 0.03568694  0.00102625  0.2500189 0.7000
  1   -231.3661957935  -0.068722684119 0.02270687  0.00072546  0.1243211 0.7000
                               ***Turning on DIIS***
  2   -231.3978903552  -0.031694561740 0.03539175  0.00131211  0.0505834 0.0000
  3   -231.4495908138  -0.051700458574 0.01697505  0.00048010  0.0603779 0.0000
  4   -231.4579589032  -0.008368089438 0.00397659  0.00009315  0.0060025 0.0000
                      *** Initiating the SOSCF procedure ***
                           *** Shutting down DIIS ***
                      *** Re-Reading the Fockian *** 
                      *** Removing any level shift *** 
ITER      Energy       Delta-E        Grad      Rot      Max-DP    RMS-DP
  5   -231.45813157  -0.0001726699  0.000421  0.000421  0.000782  0.000033
               *** Restarting incremental Fock matrix formation ***
  6   -231.45814818  -0.0000166100  0.000130  0.000190  0.000585  0.000020
  7   -231.45814984  -0.0000016588  0.000049  0.000101  0.000286  0.000010
  8   -231.45814998  -0.0000001341  0.000033  0.000023  0.000056  0.000001
  9   -231.45815001  -0.0000000293  0.000014  0.000011  0.000024  0.000001
 10   -231.45815001  -0.0000000042  0.000003  0.000004  0.000007  0.000000
                  ***Gradient check signals convergence***
              ***Rediagonalizing the Fockian in SOSCF/NRSCF***

               *****************************************************
               *                     SUCCESS                       *
               *           SCF CONVERGED AFTER  11 CYCLES          *
               *****************************************************

Setting up the final grid:

General Integration Accuracy     IntAcc      ...  4.670
Radial Grid Type                 RadialGrid  ... Gauss-Chebyshev
Angular Grid (max. acc.)         AngularGrid ... Lebedev-302
Angular grid pruning method      GridPruning ... 3 (G Style)
Weight generation scheme         WeightScheme... Becke
Basis function cutoff            BFCut       ...    1.0000e-11
Integration weight cutoff        WCut        ...    1.0000e-14
Grids for H and He will be reduced by one unit

# of grid points (after initial pruning)     ...  52000 (   0.0 sec)
# of grid points (after weights+screening)   ...  49265 (   0.0 sec)
nearest neighbour list constructed           ...    0.0 sec
Grid point re-assignment to atoms done       ...    0.0 sec
Grid point division into batches done        ...    0.2 sec
Reduced shell lists constructed in    0.2 sec

Total number of grid points                  ...    49265
Total number of batches                      ...      777
Average number of points per batch           ...       63
Average number of grid points per atom       ...     4105
Average number of shells per batch           ...    52.42 (68.98%)
Average number of basis functions per batch  ...   115.70 (67.27%)
Average number of large shells per batch     ...    42.18 (80.46%)
Average number of large basis fcns per batch ...    92.83 (80.23%)
Maximum spatial batch extension              ...  12.20, 11.51, 12.02 au
Average spatial batch extension              ...   0.19,  0.19,  0.20 au

Final grid set up in    0.3 sec
Final integration                            ... done (   0.1 sec)
Change in XC energy                          ...    -0.000448713
Integrated number of electrons               ...    35.999964426
Previous integrated no of electrons          ...    36.005404328

----------------
TOTAL SCF ENERGY
----------------

Total Energy       :         -231.45859872 Eh           -6298.30867 eV

Components:
Nuclear Repulsion  :          122.77341679 Eh            3340.83452 eV
Electronic Energy  :         -354.23201552 Eh           -9639.14319 eV
One Electron Energy:         -558.42370007 Eh          -15195.48140 eV
Two Electron Energy:          204.19168455 Eh            5556.33822 eV

Virial components:
Potential Energy   :         -461.71041867 Eh          -12563.77922 eV
Kinetic Energy     :          230.25181995 Eh            6265.47055 eV
Virial Ratio       :            2.00524113


DFT components:
N(Alpha)           :       17.999982213171 electrons
N(Beta)            :       17.999982213171 electrons
N(Total)           :       35.999964426342 electrons
E(XC)              :      -21.261211358474 Eh       
DFET-embed. en.    :        0.000000000000 Eh       

---------------
SCF CONVERGENCE
---------------

  Last Energy change         ...   -4.4278e-10  Tolerance :   1.0000e-08
  Last MAX-Density change    ...    2.7675e-06  Tolerance :   1.0000e-07
  Last RMS-Density change    ...    8.2336e-08  Tolerance :   5.0000e-09
  Last Orbital Gradient      ...    1.2220e-06  Tolerance :   1.0000e-05
  Last Orbital Rotation      ...    1.1997e-06  Tolerance :   1.0000e-05

             **** THE GBW FILE WAS UPDATED (5-103_DFT_AB.gbw) ****
             **** DENSITY FILE WAS UPDATED (5-103_DFT_AB.scfp.tmp) ****
             **** ENERGY FILE WAS UPDATED (5-103_DFT_AB.en.tmp) ****
----------------
ORBITAL ENERGIES
----------------

  NO   OCC          E(Eh)            E(eV) 
   0   2.0000     -19.254086      -523.9303 
   1   2.0000     -19.216125      -522.8973 
   2   2.0000     -10.320844      -280.8444 
   3   2.0000     -10.314378      -280.6685 
   4   2.0000      -1.143166       -31.1071 
   5   2.0000      -1.108064       -30.1519 
   6   2.0000      -0.809190       -22.0192 
   7   2.0000      -0.783527       -21.3209 
   8   2.0000      -0.623514       -16.9667 
   9   2.0000      -0.595377       -16.2010 
  10   2.0000      -0.548714       -14.9313 
  11   2.0000      -0.540919       -14.7191 
  12   2.0000      -0.522466       -14.2170 
  13   2.0000      -0.511633       -13.9222 
  14   2.0000      -0.460477       -12.5302 
  15   2.0000      -0.412388       -11.2216 
  16   2.0000      -0.385049       -10.4777 
  17   2.0000      -0.356004        -9.6874 
  18   0.0000       0.089162         2.4262 
  19   0.0000       0.139585         3.7983 
  20   0.0000       0.148246         4.0340 
  21   0.0000       0.158150         4.3035 
  22   0.0000       0.193338         5.2610 
  23   0.0000       0.198350         5.3974 
  24   0.0000       0.211615         5.7583 
  25   0.0000       0.214238         5.8297 
  26   0.0000       0.221676         6.0321 
  27   0.0000       0.260348         7.0844 
  28   0.0000       0.297218         8.0877 
  29   0.0000       0.313739         8.5373 
  30   0.0000       0.322455         8.7745 
  31   0.0000       0.353387         9.6162 
  32   0.0000       0.391574        10.6553 
  33   0.0000       0.420763        11.4495 
  34   0.0000       0.443083        12.0569 
  35   0.0000       0.471883        12.8406 
  36   0.0000       0.486570        13.2403 
  37   0.0000       0.492818        13.4102 
  38   0.0000       0.516960        14.0672 
  39   0.0000       0.535755        14.5786 
  40   0.0000       0.536705        14.6045 
  41   0.0000       0.562935        15.3182 
  42   0.0000       0.569775        15.5044 
  43   0.0000       0.582407        15.8481 
  44   0.0000       0.593541        16.1511 
  45   0.0000       0.612124        16.6567 
  46   0.0000       0.646527        17.5929 
  47   0.0000       0.653407        17.7801 
  48   0.0000       0.668754        18.1977 
  49   0.0000       0.777104        21.1461 
  50   0.0000       0.786754        21.4087 
  51   0.0000       0.801523        21.8105 
  52   0.0000       0.811177        22.0733 
  53   0.0000       0.832619        22.6567 
  54   0.0000       0.860935        23.4272 
  55   0.0000       0.923183        25.1211 
  56   0.0000       1.003472        27.3059 
  57   0.0000       1.006199        27.3801 
  58   0.0000       1.010536        27.4981 
  59   0.0000       1.044076        28.4107 
  60   0.0000       1.094377        29.7795 
  61   0.0000       1.109543        30.1922 
  62   0.0000       1.404707        38.2240 
  63   0.0000       1.424293        38.7570 
  64   0.0000       1.474324        40.1184 
  65   0.0000       1.522175        41.4205 
  66   0.0000       1.539870        41.9020 
  67   0.0000       1.562912        42.5290 
  68   0.0000       1.578578        42.9553 
  69   0.0000       1.586396        43.1680 
  70   0.0000       1.604244        43.6537 
  71   0.0000       1.639206        44.6051 
  72   0.0000       1.651797        44.9477 
  73   0.0000       1.663896        45.2769 
  74   0.0000       1.675472        45.5919 
  75   0.0000       1.698922        46.2300 
  76   0.0000       1.705291        46.4033 
  77   0.0000       1.733355        47.1670 
  78   0.0000       1.812186        49.3121 
  79   0.0000       1.889280        51.4099 
  80   0.0000       1.969173        53.5839 
  81   0.0000       1.973272        53.6955 
  82   0.0000       1.980030        53.8794 
  83   0.0000       2.007142        54.6171 
  84   0.0000       2.031889        55.2905 
  85   0.0000       2.049073        55.7581 
  86   0.0000       2.057882        55.9978 
  87   0.0000       2.119266        57.6682 
  88   0.0000       2.144808        58.3632 
  89   0.0000       2.160910        58.8014 
  90   0.0000       2.202247        59.9262 
  91   0.0000       2.257620        61.4330 
  92   0.0000       2.297445        62.5167 
  93   0.0000       2.322682        63.2034 
  94   0.0000       2.362905        64.2979 
  95   0.0000       2.403576        65.4046 
  96   0.0000       2.413247        65.6678 
  97   0.0000       2.428570        66.0848 
  98   0.0000       2.467671        67.1487 
  99   0.0000       2.494534        67.8797 
 100   0.0000       2.496593        67.9358 
 101   0.0000       2.513216        68.3881 
 102   0.0000       2.595550        70.6285 
 103   0.0000       2.612395        71.0869 
 104   0.0000       2.615843        71.1807 
 105   0.0000       2.628478        71.5245 
 106   0.0000       2.728272        74.2400 
 107   0.0000       2.749110        74.8071 
 108   0.0000       2.767602        75.3103 
 109   0.0000       2.795175        76.0606 
 110   0.0000       2.848059        77.4996 
 111   0.0000       2.892281        78.7030 
 112   0.0000       2.919018        79.4305 
 113   0.0000       2.940346        80.0109 
 114   0.0000       2.977592        81.0244 
 115   0.0000       3.037610        82.6576 
 116   0.0000       3.087737        84.0216 
 117   0.0000       3.104334        84.4732 
 118   0.0000       3.118829        84.8676 
 119   0.0000       3.139484        85.4297 
 120   0.0000       3.212642        87.4204 
 121   0.0000       3.279588        89.2421 
 122   0.0000       3.321246        90.3757 
 123   0.0000       3.360757        91.4508 
 124   0.0000       3.430162        93.3394 
 125   0.0000       3.445155        93.7474 
 126   0.0000       3.461263        94.1858 
 127   0.0000       3.496667        95.1491 
 128   0.0000       3.562382        96.9373 
 129   0.0000       3.608030        98.1795 
 130   0.0000       3.632137        98.8355 
 131   0.0000       3.662534        99.6626 
 132   0.0000       3.686736       100.3212 
 133   0.0000       3.690942       100.4356 
 134   0.0000       3.975998       108.1924 
 135   0.0000       3.990135       108.5771 
 136   0.0000       4.217245       114.7571 
 137   0.0000       4.244926       115.5103 
 138   0.0000       4.275887       116.3528 
 139   0.0000       4.315979       117.4438 
 140   0.0000       4.364032       118.7513 
 141   0.0000       4.451298       121.1260 
 142   0.0000       4.565263       124.2271 
 143   0.0000       4.620846       125.7396 
 144   0.0000       5.338524       145.2686 
 145   0.0000       5.339573       145.2972 
 146   0.0000       5.410544       147.2284 
 147   0.0000       5.432311       147.8207 
 148   0.0000       5.491221       149.4237 
 149   0.0000       5.567074       151.4878 
 150   0.0000       5.720491       155.6625 
 151   0.0000       5.774836       157.1413 
 152   0.0000       5.787426       157.4839 
 153   0.0000       5.845040       159.0516 
 154   0.0000       5.924235       161.2066 
 155   0.0000       5.955652       162.0615 
 156   0.0000       6.205992       168.8736 
 157   0.0000       6.340116       172.5233 
 158   0.0000       6.516848       177.3325 
 159   0.0000       6.535178       177.8312 
 160   0.0000       6.716841       182.7745 
 161   0.0000       6.736693       183.3147 
 162   0.0000       6.779939       184.4915 
 163   0.0000       6.808429       185.2668 
 164   0.0000       6.992187       190.2671 
 165   0.0000       7.080625       192.6736 
 166   0.0000       7.153893       194.6673 
 167   0.0000       7.221929       196.5187 
 168   0.0000      22.266025       605.8893 
 169   0.0000      22.448372       610.8513 
 170   0.0000      43.637001      1187.4232 
 171   0.0000      43.758601      1190.7321 

                    ********************************
                    * MULLIKEN POPULATION ANALYSIS *
                    ********************************

-----------------------
MULLIKEN ATOMIC CHARGES
-----------------------
   0 C :   -0.205238
   1 O :   -0.495579
   2 H :    0.328409
   3 H :    0.120603
   4 H :    0.117404
   5 H :    0.144794
   6 C :   -0.170498
   7 O :   -0.499168
   8 H :    0.326821
   9 H :    0.093088
  10 H :    0.132489
  11 H :    0.106876
Sum of atomic charges:   -0.0000000

--------------------------------
MULLIKEN REDUCED ORBITAL CHARGES
--------------------------------
  0 C s       :     3.225239  s :     3.225239
      pz      :     1.064171  p :     2.879992
      px      :     0.799891
      py      :     1.015929
      dz2     :     0.011084  d :     0.092963
      dxz     :     0.028240
      dyz     :     0.010537
      dx2y2   :     0.031285
      dxy     :     0.011817
      f0      :     0.000788  f :     0.007043
      f+1     :     0.001216
      f-1     :     0.000631
      f+2     :     0.000481
      f-2     :     0.001155
      f+3     :     0.001451
      f-3     :     0.001320
  1 O s       :     3.822484  s :     3.822484
      pz      :     1.874069  p :     4.641801
      px      :     1.489946
      py      :     1.277787
      dz2     :     0.004638  d :     0.029803
      dxz     :     0.005145
      dyz     :     0.001377
      dx2y2   :     0.009699
      dxy     :     0.008944
      f0      :     0.000204  f :     0.001490
      f+1     :     0.000212
      f-1     :     0.000354
      f+2     :     0.000088
      f-2     :     0.000140
      f+3     :     0.000302
      f-3     :     0.000189
  2 H s       :     0.629672  s :     0.629672
      pz      :     0.014565  p :     0.041919
      px      :     0.010496
      py      :     0.016859
  3 H s       :     0.858954  s :     0.858954
      pz      :     0.011290  p :     0.020443
      px      :     0.004890
      py      :     0.004263
  4 H s       :     0.862695  s :     0.862695
      pz      :     0.007425  p :     0.019902
      px      :     0.008467
      py      :     0.004010
  5 H s       :     0.834205  s :     0.834205
      pz      :     0.004836  p :     0.021002
      px      :     0.003082
      py      :     0.013084
  6 C s       :     3.223367  s :     3.223367
      pz      :     1.077175  p :     2.842136
      px      :     0.835750
      py      :     0.929211
      dz2     :     0.007945  d :     0.098003
      dxz     :     0.033492
      dyz     :     0.008208
      dx2y2   :     0.036502
      dxy     :     0.011857
      f0      :     0.000750  f :     0.006991
      f+1     :     0.001277
      f-1     :     0.000179
      f+2     :     0.000105
      f-2     :     0.001128
      f+3     :     0.002314
      f-3     :     0.001238
  7 O s       :     3.785132  s :     3.785132
      pz      :     1.549932  p :     4.686002
      px      :     1.415365
      py      :     1.720705
      dz2     :     0.006469  d :     0.026409
      dxz     :     0.006011
      dyz     :     0.002766
      dx2y2   :     0.003918
      dxy     :     0.007244
      f0      :     0.000098  f :     0.001625
      f+1     :     0.000483
      f-1     :     0.000090
      f+2     :     0.000192
      f-2     :     0.000171
      f+3     :     0.000222
      f-3     :     0.000369
  8 H s       :     0.625046  s :     0.625046
      pz      :     0.018996  p :     0.048134
      px      :     0.015538
      py      :     0.013600
  9 H s       :     0.887722  s :     0.887722
      pz      :     0.004538  p :     0.019190
      px      :     0.003346
      py      :     0.011306
 10 H s       :     0.847549  s :     0.847549
      pz      :     0.009238  p :     0.019961
      px      :     0.006862
      py      :     0.003861
 11 H s       :     0.873945  s :     0.873945
      pz      :     0.008879  p :     0.019179
      px      :     0.006283
      py      :     0.004017


                     *******************************
                     * LOEWDIN POPULATION ANALYSIS *
                     *******************************

----------------------
LOEWDIN ATOMIC CHARGES
----------------------
   0 C :   -0.379163
   1 O :   -0.109012
   2 H :    0.200354
   3 H :    0.096532
   4 H :    0.100318
   5 H :    0.104283
   6 C :   -0.382614
   7 O :   -0.109068
   8 H :    0.171657
   9 H :    0.096554
  10 H :    0.110946
  11 H :    0.099213

-------------------------------
LOEWDIN REDUCED ORBITAL CHARGES
-------------------------------
  0 C s       :     2.855342  s :     2.855342
      pz      :     1.106669  p :     3.070631
      px      :     0.913668
      py      :     1.050293
      dz2     :     0.063194  d :     0.399549
      dxz     :     0.121094
      dyz     :     0.028269
      dx2y2   :     0.120817
      dxy     :     0.066174
      f0      :     0.004905  f :     0.053641
      f+1     :     0.006818
      f-1     :     0.005872
      f+2     :     0.004261
      f-2     :     0.012195
      f+3     :     0.009218
      f-3     :     0.010371
  1 O s       :     3.406062  s :     3.406062
      pz      :     1.781467  p :     4.631745
      px      :     1.556253
      py      :     1.294025
      dz2     :     0.009383  d :     0.066974
      dxz     :     0.011341
      dyz     :     0.004360
      dx2y2   :     0.024386
      dxy     :     0.017505
      f0      :     0.000316  f :     0.004231
      f+1     :     0.000514
      f-1     :     0.000595
      f+2     :     0.000244
      f-2     :     0.000489
      f+3     :     0.001410
      f-3     :     0.000664
  2 H s       :     0.661194  s :     0.661194
      pz      :     0.038022  p :     0.138452
      px      :     0.034608
      py      :     0.065823
  3 H s       :     0.840393  s :     0.840393
      pz      :     0.033594  p :     0.063075
      px      :     0.014884
      py      :     0.014597
  4 H s       :     0.838083  s :     0.838083
      pz      :     0.022541  p :     0.061600
      px      :     0.025128
      py      :     0.013930
  5 H s       :     0.829511  s :     0.829511
      pz      :     0.015518  p :     0.066206
      px      :     0.010564
      py      :     0.040124
  6 C s       :     2.876440  s :     2.876440
      pz      :     1.110035  p :     3.061203
      px      :     0.938692
      py      :     1.012476
      dz2     :     0.046083  d :     0.394306
      dxz     :     0.117858
      dyz     :     0.022265
      dx2y2   :     0.129614
      dxy     :     0.078486
      f0      :     0.004621  f :     0.050666
      f+1     :     0.006295
      f-1     :     0.003955
      f+2     :     0.003215
      f-2     :     0.007356
      f+3     :     0.014966
      f-3     :     0.010258
  7 O s       :     3.374640  s :     3.374640
      pz      :     1.539055  p :     4.667936
      px      :     1.435526
      py      :     1.693355
      dz2     :     0.011610  d :     0.062615
      dxz     :     0.017433
      dyz     :     0.004431
      dx2y2   :     0.013022
      dxy     :     0.016118
      f0      :     0.000347  f :     0.003877
      f+1     :     0.000884
      f-1     :     0.000283
      f+2     :     0.000283
      f-2     :     0.000527
      f+3     :     0.000784
      f-3     :     0.000769
  8 H s       :     0.670623  s :     0.670623
      pz      :     0.073948  p :     0.157720
      px      :     0.044071
      py      :     0.039701
  9 H s       :     0.846860  s :     0.846860
      pz      :     0.013582  p :     0.056586
      px      :     0.010520
      py      :     0.032483
 10 H s       :     0.829328  s :     0.829328
      pz      :     0.028564  p :     0.059727
      px      :     0.019659
      py      :     0.011503
 11 H s       :     0.843269  s :     0.843269
      pz      :     0.026941  p :     0.057517
      px      :     0.018638
      py      :     0.011938


                      *****************************
                      * MAYER POPULATION ANALYSIS *
                      *****************************

  NA   - Mulliken gross atomic population
  ZA   - Total nuclear charge
  QA   - Mulliken gross atomic charge
  VA   - Mayer's total valence
  BVA  - Mayer's bonded valence
  FA   - Mayer's free valence

  ATOM       NA         ZA         QA         VA         BVA        FA
  0 C      6.2052     6.0000    -0.2052     3.8912     3.8912     0.0000
  1 O      8.4956     8.0000    -0.4956     1.8700     1.8700    -0.0000
  2 H      0.6716     1.0000     0.3284     0.9004     0.9004    -0.0000
  3 H      0.8794     1.0000     0.1206     0.9537     0.9537     0.0000
  4 H      0.8826     1.0000     0.1174     0.9624     0.9624     0.0000
  5 H      0.8552     1.0000     0.1448     0.9641     0.9641     0.0000
  6 C      6.1705     6.0000    -0.1705     3.9273     3.9273    -0.0000
  7 O      8.4992     8.0000    -0.4992     1.8597     1.8597    -0.0000
  8 H      0.6732     1.0000     0.3268     0.9183     0.9183    -0.0000
  9 H      0.9069     1.0000     0.0931     0.9588     0.9588    -0.0000
 10 H      0.8675     1.0000     0.1325     0.9549     0.9549     0.0000
 11 H      0.8931     1.0000     0.1069     0.9590     0.9590     0.0000

  Mayer bond orders larger than 0.1
B(  0-C ,  1-O ) :   0.9590 B(  0-C ,  3-H ) :   0.9746 B(  0-C ,  4-H ) :   0.9780 
B(  0-C ,  5-H ) :   0.9706 B(  1-O ,  2-H ) :   0.8871 B(  6-C ,  7-O ) :   0.9837 
B(  6-C ,  9-H ) :   0.9812 B(  6-C , 10-H ) :   0.9645 B(  6-C , 11-H ) :   0.9809 
B(  7-O ,  8-H ) :   0.8786 

-------
TIMINGS
-------

Total SCF time: 0 days 0 hours 0 min 15 sec 

Total time                  ....      15.887 sec
Sum of individual times     ....      15.215 sec  ( 95.8%)

Fock matrix formation       ....      14.291 sec  ( 90.0%)
  XC integration            ....       4.996 sec  ( 35.0% of F)
    Basis function eval.    ....       0.061 sec  (  1.2% of XC)
    Density eval.           ....       0.100 sec  (  2.0% of XC)
    XC-Functional eval.     ....       0.129 sec  (  2.6% of XC)
    XC-Potential eval.      ....       0.065 sec  (  1.3% of XC)
Diagonalization             ....       0.206 sec  (  1.3%)
Density matrix formation    ....       0.009 sec  (  0.1%)
Population analysis         ....       0.040 sec  (  0.3%)
Initial guess               ....       0.113 sec  (  0.7%)
Orbital Transformation      ....       0.000 sec  (  0.0%)
Orbital Orthonormalization  ....       0.000 sec  (  0.0%)
DIIS solution               ....       0.120 sec  (  0.8%)
SOSCF solution              ....       0.087 sec  (  0.5%)
Grid generation             ....       0.350 sec  (  2.2%)


-------------------------------------------------------------------------------
                          DFT DISPERSION CORRECTION                            
                                                                               
                              DFTD3 V3.1  Rev 1                                
                              USING zero damping                               
-------------------------------------------------------------------------------
The omegaB97X-D3 functional is recognized. Fit by Chai et al.
Active option DFTDOPT                   ...         3   

molecular C6(AA) [au] = 835.242334 


            DFT-D V3
 parameters
 s6 scaling factor         :     1.0000 
 rs6 scaling factor        :     1.2810 
 s8 scaling factor         :     1.0000 
 rs8 scaling factor        :     1.0940 
 Damping factor alpha6     :    14.0000 
 Damping factor alpha8     :    16.0000 
 ad hoc parameters k1-k3   :    16.0000     1.3333    -4.0000 

 Edisp/kcal,au: -1.003603210234  -0.001599343348 
 E6   /kcal   :  -0.453994377 
 E8   /kcal   :  -0.549608833 
 % E8         :  54.763558727 

-------------------------   ----------------
Dispersion correction           -0.001599343
-------------------------   ----------------


-------------------------   --------------------
FINAL SINGLE POINT ENERGY      -231.460198066728
-------------------------   --------------------


                            ***************************************
                            *     ORCA property calculations      *
                            ***************************************

                                    ---------------------
                                    Active property flags
                                    ---------------------
   (+) Dipole Moment


------------------------------------------------------------------------------
                       ORCA ELECTRIC PROPERTIES CALCULATION
------------------------------------------------------------------------------

Dipole Moment Calculation                       ... on
Quadrupole Moment Calculation                   ... off
Polarizability Calculation                      ... off
GBWName                                         ... 5-103_DFT_AB.gbw
Electron density file                           ... 5-103_DFT_AB.scfp.tmp
The origin for moment calculation is the CENTER OF MASS  = (15.274489, -16.601837 16.137387)

-------------
DIPOLE MOMENT
-------------
                                X             Y             Z
Electronic contribution:     -0.07589       0.66515      -0.36970
Nuclear contribution   :      0.71879      -1.39184      -0.09986
                        -----------------------------------------
Total Dipole Moment    :      0.64290      -0.72670      -0.46956
                        -----------------------------------------
Magnitude (a.u.)       :      1.07791
Magnitude (Debye)      :      2.73983



--------------------
Rotational spectrum 
--------------------
 
Rotational constants in cm-1:     0.539914     0.064087     0.058897 
Rotational constants in MHz : 16186.203985  1921.282599  1765.686301 

 Dipole components along the rotational axes: 
x,y,z [a.u.] :     0.766514     0.471291     0.593489 
x,y,z [Debye]:     1.948324     1.197926     1.508529 

 
------------------------------------------------------------------------------
                      ORCA CHELPG CHARGES GENERATION
------------------------------------------------------------------------------

GBW file                           ... 5-103_DFT_AB.gbw

Reading the GBW file               ... done

Grid spacing                       ...     0.300000
Point Cut-Off                      ...     2.800000
Van-der-Waals Radii                ...        COSMO
Total charge                       ...            0


Number of points X direction       ...           37
Number of points Y direction       ...           28
Number of points Z direction       ...           32
Maximum number of possible points  ...        33152
Final number of points             ...        10239


CHELPG Charges            
--------------------------------
  0   C   :       0.075612
  1   O   :      -0.592005
  2   H   :       0.403347
  3   H   :       0.014966
  4   H   :       0.023969
  5   H   :       0.090571
  6   C   :       0.164454
  7   O   :      -0.663527
  8   H   :       0.437505
  9   H   :      -0.021636
 10   H   :       0.066194
 11   H   :       0.000550
--------------------------------
Total charge:     0.000000
--------------------------------

CHELPG charges calculated...

Timings for individual parts in CHELPG calculation:
Grid generation                 ...        0.002 sec (=   0.000 min)
Potential calculation           ...        2.139 sec (=   0.036 min)
Fit to the potential            ...        0.004 sec (=   0.000 min)
------------------------------------------------------------------------------


Timings for individual modules:

Sum of individual times         ...       23.617 sec (=   0.394 min)
GTO integral calculation        ...        4.425 sec (=   0.074 min)  18.7 %
SCF iterations                  ...       17.010 sec (=   0.283 min)  72.0 %
CHELPG charge generation        ...        2.182 sec (=   0.036 min)   9.2 %


                 $$$$$$$$$$$$$$$$  JOB NUMBER  2 $$$$$$$$$$$$$$


                       ****************************
                       * Single Point Calculation *
                       ****************************

---------------------------------
CARTESIAN COORDINATES (ANGSTROEM)
---------------------------------
  C     10.099755   -8.391832    7.426089
  O      8.932273   -9.123837    7.036020
  H      9.240936  -10.078565    7.004083
  H     10.500209   -8.720719    8.378348
  H     10.929111   -8.689775    6.786376
  H      9.978572   -7.339789    7.447551
  C      6.029280   -9.175350    9.917710
  O      7.212876   -8.355816    9.850832
  H      7.738320   -8.490723    9.042693
  H      6.303231  -10.242801    9.700826
  H      5.373470   -9.245646   10.809039
  H      5.365920   -8.959489    9.043971

----------------------------
CARTESIAN COORDINATES (A.U.)
----------------------------
  NO LB      ZA    FRAG     MASS         X           Y           Z
   0 C     6.0000    0    12.011   19.085771  -15.858264   14.033274
   1 O     8.0000    0    15.999   16.879550  -17.241553   13.296151
   2 H     1.0000    0     1.008   17.462838  -19.045728   13.235799
   3 H     1.0000    0     1.008   19.842519  -16.479771   15.832783
   4 H     1.0000    0     1.008   20.653027  -16.421295   12.824392
   5 H     1.0000    0     1.008   18.856768  -13.870191   14.073832
   6 C     0.0000    0     0.000   11.393688  -17.338899   18.741756
   7 O     0.0000    0     0.000   13.630360  -15.790204   18.615375
   8 H     0.0000    0     0.000   14.623306  -16.045141   17.088213
   9 H     0.0000    0     0.000   11.911380  -19.356089   18.331904
  10 H     0.0000    0     0.000   10.154387  -17.471739   20.426123
  11 H     0.0000    0     0.000   10.140119  -16.930981   17.090628

--------------------------------
INTERNAL COORDINATES (ANGSTROEM)
--------------------------------
 C      0   0   0     0.000000000000     0.00000000     0.00000000
 O      1   0   0     1.432131057240     0.00000000     0.00000000
 H      2   1   0     1.003891614430   104.12952288     0.00000000
 H      1   2   3     1.084125116380   112.66245709   301.54699792
 H      1   2   3     1.088960113298   108.72418496    49.91249621
 H      1   2   3     1.059216885620   114.82958154   175.94289587
 C      2   1   3     4.090740666837   113.14619576   111.34678162
 O      7   2   1     1.441182894450    51.48918579    12.38378097
 H      8   7   2     0.973334443604   113.76986633     2.79428777
 H      7   2   1     1.123182735470    72.71372094   238.68423191
 H      7   2   1     1.108826257787   170.67405623   308.26197726
 H      7   2   1     1.118061850276    82.42105536   135.46199069

---------------------------
INTERNAL COORDINATES (A.U.)
---------------------------
 C      0   0   0     0.000000000000     0.00000000     0.00000000
 O      1   0   0     2.706335486066     0.00000000     0.00000000
 H      2   1   0     1.897080219412   104.12952288     0.00000000
 H      1   2   3     2.048699564864   112.66245709   301.54699792
 H      1   2   3     2.057836384897   108.72418496    49.91249621
 H      1   2   3     2.001629830246   114.82958154   175.94289587
 C      2   1   3     7.730379545217   113.14619576   111.34678162
 O      7   2   1     2.723440979403    51.48918579    12.38378097
 H      8   7   2     1.839335535124   113.76986633     2.79428777
 H      7   2   1     2.122507768387    72.71372094   238.68423191
 H      7   2   1     2.095377957317   170.67405623   308.26197726
 H      7   2   1     2.112830697806    82.42105536   135.46199069

---------------------
BASIS SET INFORMATION
---------------------
There are 3 groups of distinct atoms

 Group   1 Type C   : 11s6p2d1f contracted to 5s3p2d1f pattern {62111/411/11/1}
 Group   2 Type O   : 11s6p2d1f contracted to 5s3p2d1f pattern {62111/411/11/1}
 Group   3 Type H   : 5s1p contracted to 3s1p pattern {311/1}

Atom   0C    basis set group =>   1
Atom   1O    basis set group =>   2
Atom   2H    basis set group =>   3
Atom   3H    basis set group =>   3
Atom   4H    basis set group =>   3
Atom   5H    basis set group =>   3
Atom   6C    basis set group =>   1
Atom   7O    basis set group =>   2
Atom   8H    basis set group =>   3
Atom   9H    basis set group =>   3
Atom  10H    basis set group =>   3
Atom  11H    basis set group =>   3


           ************************************************************
           *        Program running with 8 parallel MPI-processes     *
           *              working on a common directory               *
           ************************************************************
------------------------------------------------------------------------------
                           ORCA GTO INTEGRAL CALCULATION
------------------------------------------------------------------------------

                         BASIS SET STATISTICS AND STARTUP INFO

 # of primitive gaussian shells          ...  128
 # of primitive gaussian functions       ...  248
 # of contracted shells                  ...   76
 # of contracted basis functions         ...  172
 Highest angular momentum                ...    3
 Maximum contraction depth               ...    6
 Integral package used                   ... LIBINT
 Integral threshhold            Thresh   ...  2.500e-11
 Primitive cut-off              TCut     ...  2.500e-12


------------------------------ INTEGRAL EVALUATION ----------------------------


 * One electron integrals 
 Pre-screening matrix                    ... done
 Shell pair data                         ... done (   0.001 sec)



           ************************************************************
           *        Program running with 8 parallel MPI-processes     *
           *              working on a common directory               *
           ************************************************************
-------------------------------------------------------------------------------
                                 ORCA SCF
-------------------------------------------------------------------------------

------------
SCF SETTINGS
------------
Hamiltonian:
 Density Functional     Method          .... DFT(GTOs)
 Exchange Functional    Exchange        .... WB97X-D3
 Correlation Functional Correlation     .... WB97X-D3
 Gradients option       PostSCFGGA      .... off
 Hybrid DFT is turned on
   Fraction HF Exchange ScalHFX         ....  0.195728
   Scaling of DF-GGA-X  ScalDFX         ....  0.000000
   Scaling of DF-GGA-C  ScalDFC         ....  1.000000
   Scaling of DF-LDA-C  ScalLDAC        ....  1.000000
   Perturbative correction              ....  0.000000
   Density functional embedding theory  .... OFF
 Long-range corrected/Screened/Range-Separated Hybrid DFT is turned on
   Amount of maximum screened exact exchange              ....  0.804272
   Range separation parameter mu (erf(mu*r12)/r12)        ....  0.250000


General Settings:
 Integral files         IntName         .... 5-103_DFT_A
 Hartree-Fock type      HFTyp           .... RHF
 Total Charge           Charge          ....    0
 Multiplicity           Mult            ....    1
 Number of Electrons    NEL             ....   18
 Basis Dimension        Dim             ....  172
 Nuclear Repulsion      ENuc            ....     40.0856197213 Eh

Convergence Acceleration:
 DIIS                   CNVDIIS         .... on
   Start iteration      DIISMaxIt       ....    12
   Startup error        DIISStart       ....  0.200000
   # of expansion vecs  DIISMaxEq       ....     5
   Bias factor          DIISBfac        ....   1.050
   Max. coefficient     DIISMaxC        ....  10.000
 Newton-Raphson         CNVNR           .... off
 SOSCF                  CNVSOSCF        .... on
   Start iteration      SOSCFMaxIt      ....   150
   Startup grad/error   SOSCFStart      ....  0.003300
 Level Shifting         CNVShift        .... on
   Level shift para.    LevelShift      ....    0.2500
   Turn off err/grad.   ShiftErr        ....    0.0010
 Zerner damping         CNVZerner       .... off
 Static damping         CNVDamp         .... on
   Fraction old density DampFac         ....    0.7000
   Max. Damping (<1)    DampMax         ....    0.9800
   Min. Damping (>=0)   DampMin         ....    0.0000
   Turn off err/grad.   DampErr         ....    0.1000
 Fernandez-Rico         CNVRico         .... off

SCF Procedure:
 Maximum # iterations   MaxIter         ....  1000
 SCF integral mode      SCFMode         .... Direct
   Integral package                     .... LIBINT
 Reset frequency        DirectResetFreq ....    20
 Integral Threshold     Thresh          ....  2.500e-11 Eh
 Primitive CutOff       TCut            ....  2.500e-12 Eh

Convergence Tolerance:
 Convergence Check Mode ConvCheckMode   .... Total+1el-Energy
 Convergence forced     ConvForced      .... 0
 Energy Change          TolE            ....  1.000e-08 Eh
 1-El. energy change                    ....  1.000e-05 Eh
 Orbital Gradient       TolG            ....  1.000e-05
 Orbital Rotation angle TolX            ....  1.000e-05
 DIIS Error             TolErr          ....  5.000e-07


Diagonalization of the overlap matrix:
Smallest eigenvalue                        ... 1.468e-03
Time for diagonalization                   ...    0.005 sec
Threshold for overlap eigenvalues          ... 1.000e-08
Number of eigenvalues below threshold      ... 0
Time for construction of square roots      ...    0.009 sec
Total time needed                          ...    0.014 sec

-------------------
DFT GRID GENERATION
-------------------

General Integration Accuracy     IntAcc      ...  4.340
Radial Grid Type                 RadialGrid  ... Gauss-Chebyshev
Angular Grid (max. acc.)         AngularGrid ... Lebedev-110
Angular grid pruning method      GridPruning ... 3 (G Style)
Weight generation scheme         WeightScheme... Becke
Basis function cutoff            BFCut       ...    1.0000e-11
Integration weight cutoff        WCut        ...    1.0000e-14
Grids for H and He will be reduced by one unit

# of grid points (after initial pruning)     ...  13096 (   0.0 sec)
# of grid points (after weights+screening)   ...  12504 (   0.0 sec)
nearest neighbour list constructed           ...    0.0 sec
Grid point re-assignment to atoms done       ...    0.0 sec
Grid point division into batches done        ...    0.0 sec
Reduced shell lists constructed in    0.0 sec

Total number of grid points                  ...    12504
Total number of batches                      ...      201
Average number of points per batch           ...       62
Average number of grid points per atom       ...     1042
Average number of shells per batch           ...    53.81 (70.81%)
Average number of basis functions per batch  ...   119.52 (69.49%)
Average number of large shells per batch     ...    43.89 (81.56%)
Average number of large basis fcns per batch ...    96.63 (80.85%)
Maximum spatial batch extension              ...  12.26, 10.18, 15.47 au
Average spatial batch extension              ...   0.29,  0.26,  0.33 au

Time for grid setup =    0.052 sec

------------------------------
INITIAL GUESS: MODEL POTENTIAL
------------------------------
Loading Hartree-Fock densities                     ... done
Calculating cut-offs                               ... done
Setting up the integral package                    ... done
Initializing the effective Hamiltonian             ... done
Starting the Coulomb interaction                   ... done (   0.0 sec)
Reading the grid                                   ... done
Mapping shells                                     ... done
Starting the XC term evaluation                    ... done (   0.0 sec)
  promolecular density results
     # of electrons  =     18.002184441
     EX              =    -14.423549515
     EC              =     -0.574623124
     EX+EC           =    -14.998172639
Transforming the Hamiltonian                       ... done (   0.0 sec)
Diagonalizing the Hamiltonian                      ... done (   0.0 sec)
Back transforming the eigenvectors                 ... done (   0.0 sec)
Now organizing SCF variables                       ... done
                      ------------------
                      INITIAL GUESS DONE (   0.2 sec)
                      ------------------
--------------
SCF ITERATIONS
--------------
ITER       Energy         Delta-E        Max-DP      RMS-DP      [F,P]     Damp
               ***  Starting incremental Fock matrix formation  ***
  0   -115.6446455121   0.000000000000 0.03468714  0.00074335  0.2319777 0.7000
  1   -115.6808530639  -0.036207551731 0.02210755  0.00052645  0.1210915 0.7000
                               ***Turning on DIIS***
  2   -115.6976182930  -0.016765229137 0.03353725  0.00095425  0.0516587 0.0000
  3   -115.7249549566  -0.027336663576 0.01755561  0.00034919  0.0587396 0.0000
  4   -115.7293697629  -0.004414806367 0.00403425  0.00006890  0.0061230 0.0000
                      *** Initiating the SOSCF procedure ***
                           *** Shutting down DIIS ***
                      *** Re-Reading the Fockian *** 
                      *** Removing any level shift *** 
ITER      Energy       Delta-E        Grad      Rot      Max-DP    RMS-DP
  5   -115.72946753  -0.0000977671  0.000427  0.000427  0.000818  0.000024
               *** Restarting incremental Fock matrix formation ***
  6   -115.72947669  -0.0000091577  0.000128  0.000166  0.000489  0.000015
  7   -115.72947754  -0.0000008534  0.000047  0.000094  0.000240  0.000007
  8   -115.72947761  -0.0000000718  0.000019  0.000017  0.000033  0.000001
  9   -115.72947762  -0.0000000074  0.000010  0.000008  0.000017  0.000001
                  ***Gradient check signals convergence***
              ***Rediagonalizing the Fockian in SOSCF/NRSCF***

               *****************************************************
               *                     SUCCESS                       *
               *           SCF CONVERGED AFTER  10 CYCLES          *
               *****************************************************

Setting up the final grid:

General Integration Accuracy     IntAcc      ...  4.670
Radial Grid Type                 RadialGrid  ... Gauss-Chebyshev
Angular Grid (max. acc.)         AngularGrid ... Lebedev-302
Angular grid pruning method      GridPruning ... 3 (G Style)
Weight generation scheme         WeightScheme... Becke
Basis function cutoff            BFCut       ...    1.0000e-11
Integration weight cutoff        WCut        ...    1.0000e-14
Grids for H and He will be reduced by one unit

# of grid points (after initial pruning)     ...  52000 (   0.0 sec)
# of grid points (after weights+screening)   ...  49265 (   0.0 sec)
nearest neighbour list constructed           ...    0.0 sec
Grid point re-assignment to atoms done       ...    0.0 sec
Grid point division into batches done        ...    0.2 sec
Reduced shell lists constructed in    0.2 sec

Total number of grid points                  ...    49265
Total number of batches                      ...      777
Average number of points per batch           ...       63
Average number of grid points per atom       ...     4105
Average number of shells per batch           ...    52.42 (68.98%)
Average number of basis functions per batch  ...   115.70 (67.27%)
Average number of large shells per batch     ...    42.18 (80.46%)
Average number of large basis fcns per batch ...    92.83 (80.23%)
Maximum spatial batch extension              ...  12.20, 11.51, 12.02 au
Average spatial batch extension              ...   0.19,  0.19,  0.20 au

Final grid set up in    0.2 sec
Final integration                            ... done (   0.1 sec)
Change in XC energy                          ...    -0.000288463
Integrated number of electrons               ...    17.999999307
Previous integrated no of electrons          ...    18.002437210

----------------
TOTAL SCF ENERGY
----------------

Total Energy       :         -115.72976609 Eh           -3149.16704 eV

Components:
Nuclear Repulsion  :           40.08561972 Eh            1090.78517 eV
Electronic Energy  :         -155.81538581 Eh           -4239.95220 eV
One Electron Energy:         -236.59939319 Eh           -6438.19680 eV
Two Electron Energy:           80.78400738 Eh            2198.24460 eV

Virial components:
Potential Energy   :         -230.93897093 Eh           -6284.16888 eV
Kinetic Energy     :          115.20920484 Eh            3135.00184 eV
Virial Ratio       :            2.00451840


DFT components:
N(Alpha)           :        8.999999653278 electrons
N(Beta)            :        8.999999653278 electrons
N(Total)           :       17.999999306556 electrons
E(XC)              :      -10.644427637888 Eh       
DFET-embed. en.    :        0.000000000000 Eh       

---------------
SCF CONVERGENCE
---------------

  Last Energy change         ...   -2.3174e-09  Tolerance :   1.0000e-08
  Last MAX-Density change    ...    4.1255e-06  Tolerance :   1.0000e-07
  Last RMS-Density change    ...    1.0770e-07  Tolerance :   5.0000e-09
  Last Orbital Gradient      ...    2.1106e-06  Tolerance :   1.0000e-05
  Last Orbital Rotation      ...    2.6250e-06  Tolerance :   1.0000e-05

             **** THE GBW FILE WAS UPDATED (5-103_DFT_A.gbw) ****
             **** DENSITY FILE WAS UPDATED (5-103_DFT_A.scfp.tmp) ****
             **** ENERGY FILE WAS UPDATED (5-103_DFT_A.en.tmp) ****
----------------
ORBITAL ENERGIES
----------------

  NO   OCC          E(Eh)            E(eV) 
   0   2.0000     -19.235825      -523.4334 
   1   2.0000     -10.310000      -280.5494 
   2   2.0000      -1.125664       -30.6309 
   3   2.0000      -0.797179       -21.6923 
   4   2.0000      -0.607769       -16.5382 
   5   2.0000      -0.535669       -14.5763 
   6   2.0000      -0.528088       -14.3700 
   7   2.0000      -0.444705       -12.1010 
   8   2.0000      -0.368892       -10.0381 
   9   0.0000       0.091953         2.5022 
  10   0.0000       0.116489         3.1698 
  11   0.0000       0.149563         4.0698 
  12   0.0000       0.185088         5.0365 
  13   0.0000       0.199253         5.4219 
  14   0.0000       0.205085         5.5807 
  15   0.0000       0.211725         5.7613 
  16   0.0000       0.220272         5.9939 
  17   0.0000       0.232417         6.3244 
  18   0.0000       0.292498         7.9593 
  19   0.0000       0.309540         8.4230 
  20   0.0000       0.331947         9.0327 
  21   0.0000       0.345863         9.4114 
  22   0.0000       0.354404         9.6438 
  23   0.0000       0.383923        10.4471 
  24   0.0000       0.437705        11.9106 
  25   0.0000       0.447970        12.1899 
  26   0.0000       0.479899        13.0587 
  27   0.0000       0.507920        13.8212 
  28   0.0000       0.515532        14.0283 
  29   0.0000       0.538106        14.6426 
  30   0.0000       0.556452        15.1418 
  31   0.0000       0.568372        15.4662 
  32   0.0000       0.596315        16.2266 
  33   0.0000       0.611824        16.6486 
  34   0.0000       0.656267        17.8579 
  35   0.0000       0.665102        18.0984 
  36   0.0000       0.700019        19.0485 
  37   0.0000       0.743088        20.2205 
  38   0.0000       0.792891        21.5757 
  39   0.0000       0.801480        21.8094 
  40   0.0000       0.826448        22.4888 
  41   0.0000       0.842308        22.9204 
  42   0.0000       0.866662        23.5831 
  43   0.0000       0.936532        25.4843 
  44   0.0000       1.014056        27.5939 
  45   0.0000       1.033161        28.1138 
  46   0.0000       1.059933        28.8423 
  47   0.0000       1.107986        30.1498 
  48   0.0000       1.154547        31.4168 
  49   0.0000       1.164002        31.6741 
  50   0.0000       1.201654        32.6987 
  51   0.0000       1.219312        33.1792 
  52   0.0000       1.251649        34.0591 
  53   0.0000       1.371602        37.3232 
  54   0.0000       1.387613        37.7589 
  55   0.0000       1.419758        38.6336 
  56   0.0000       1.470829        40.0233 
  57   0.0000       1.499737        40.8099 
  58   0.0000       1.554419        42.2979 
  59   0.0000       1.589131        43.2425 
  60   0.0000       1.608798        43.7776 
  61   0.0000       1.643612        44.7250 
  62   0.0000       1.671577        45.4859 
  63   0.0000       1.692874        46.0654 
  64   0.0000       1.716691        46.7135 
  65   0.0000       1.806621        49.1607 
  66   0.0000       1.850300        50.3492 
  67   0.0000       1.925740        52.4021 
  68   0.0000       1.974776        53.7364 
  69   0.0000       1.993774        54.2533 
  70   0.0000       2.016211        54.8639 
  71   0.0000       2.042763        55.5864 
  72   0.0000       2.062989        56.1368 
  73   0.0000       2.103420        57.2370 
  74   0.0000       2.150218        58.5104 
  75   0.0000       2.174317        59.1662 
  76   0.0000       2.219504        60.3958 
  77   0.0000       2.223663        60.5089 
  78   0.0000       2.306632        62.7667 
  79   0.0000       2.321107        63.1605 
  80   0.0000       2.331008        63.4300 
  81   0.0000       2.381059        64.7919 
  82   0.0000       2.419738        65.8444 
  83   0.0000       2.481536        67.5260 
  84   0.0000       2.502573        68.0985 
  85   0.0000       2.529171        68.8222 
  86   0.0000       2.555563        69.5404 
  87   0.0000       2.609761        71.0152 
  88   0.0000       2.617252        71.2190 
  89   0.0000       2.647956        72.0545 
  90   0.0000       2.656737        72.2935 
  91   0.0000       2.756080        74.9968 
  92   0.0000       2.794866        76.0522 
  93   0.0000       2.848059        77.4996 
  94   0.0000       2.853710        77.6534 
  95   0.0000       2.902553        78.9825 
  96   0.0000       2.908283        79.1384 
  97   0.0000       2.995233        81.5044 
  98   0.0000       3.073344        83.6299 
  99   0.0000       3.097647        84.2913 
 100   0.0000       3.114421        84.7477 
 101   0.0000       3.149236        85.6951 
 102   0.0000       3.164198        86.1022 
 103   0.0000       3.267366        88.9095 
 104   0.0000       3.292869        89.6035 
 105   0.0000       3.345216        91.0280 
 106   0.0000       3.373339        91.7932 
 107   0.0000       3.408104        92.7392 
 108   0.0000       3.439865        93.6035 
 109   0.0000       3.463363        94.2429 
 110   0.0000       3.477236        94.6204 
 111   0.0000       3.575096        97.2833 
 112   0.0000       3.628596        98.7391 
 113   0.0000       3.645040        99.1866 
 114   0.0000       3.645570        99.2010 
 115   0.0000       3.697097       100.6031 
 116   0.0000       3.705263       100.8253 
 117   0.0000       4.004083       108.9566 
 118   0.0000       4.068170       110.7005 
 119   0.0000       4.077008       110.9410 
 120   0.0000       4.213240       114.6481 
 121   0.0000       4.229378       115.0872 
 122   0.0000       4.273773       116.2953 
 123   0.0000       4.370426       118.9253 
 124   0.0000       4.452369       121.1551 
 125   0.0000       4.466400       121.5369 
 126   0.0000       4.529099       123.2430 
 127   0.0000       4.544437       123.6604 
 128   0.0000       4.572674       124.4288 
 129   0.0000       4.591793       124.9490 
 130   0.0000       4.607061       125.3645 
 131   0.0000       4.945845       134.5833 
 132   0.0000       5.052107       137.4748 
 133   0.0000       5.114500       139.1726 
 134   0.0000       5.335809       145.1947 
 135   0.0000       5.358336       145.8077 
 136   0.0000       5.451232       148.3356 
 137   0.0000       5.487277       149.3164 
 138   0.0000       5.510556       149.9499 
 139   0.0000       5.641213       153.5052 
 140   0.0000       5.738918       156.1639 
 141   0.0000       5.793253       157.6424 
 142   0.0000       5.879682       159.9943 
 143   0.0000       5.928472       161.3219 
 144   0.0000       5.972621       162.5233 
 145   0.0000       6.224249       169.3704 
 146   0.0000       6.538739       177.9281 
 147   0.0000       6.575266       178.9221 
 148   0.0000       6.658426       181.1850 
 149   0.0000       6.750411       183.6880 
 150   0.0000       6.798933       185.0084 
 151   0.0000       6.868216       186.8937 
 152   0.0000       7.009573       190.7402 
 153   0.0000       7.091622       192.9728 
 154   0.0000       7.171775       195.1539 
 155   0.0000       7.183750       195.4798 
 156   0.0000       7.354912       200.1373 
 157   0.0000       8.032641       218.5793 
 158   0.0000       8.869789       241.3592 
 159   0.0000       9.307686       253.2750 
 160   0.0000       9.562619       260.2121 
 161   0.0000       9.646217       262.4869 
 162   0.0000       9.793856       266.5044 
 163   0.0000       9.842563       267.8297 
 164   0.0000       9.901933       269.4453 
[...]
  82   0.0000       2.417038        65.7710 
  83   0.0000       2.450801        66.6897 
  84   0.0000       2.483684        67.5845 
  85   0.0000       2.529373        68.8277 
  86   0.0000       2.578560        70.1662 
  87   0.0000       2.598077        70.6973 
  88   0.0000       2.614203        71.1361 
  89   0.0000       2.628921        71.5366 
  90   0.0000       2.669844        72.6502 
  91   0.0000       2.718179        73.9654 
  92   0.0000       2.768853        75.3443 
  93   0.0000       2.803112        76.2766 
  94   0.0000       2.817167        76.6590 
  95   0.0000       2.902908        78.9922 
  96   0.0000       2.928487        79.6882 
  97   0.0000       3.017151        82.1009 
  98   0.0000       3.087152        84.0057 
  99   0.0000       3.092372        84.1477 
 100   0.0000       3.104156        84.4684 
 101   0.0000       3.127344        85.0994 
 102   0.0000       3.169339        86.2421 
 103   0.0000       3.198492        87.0354 
 104   0.0000       3.283552        89.3500 
 105   0.0000       3.302858        89.8753 
 106   0.0000       3.309970        90.0689 
 107   0.0000       3.322334        90.4053 
 108   0.0000       3.362538        91.4993 
 109   0.0000       3.418777        93.0297 
 110   0.0000       3.484301        94.8127 
 111   0.0000       3.594919        97.8227 
 112   0.0000       3.610497        98.2466 
 113   0.0000       3.652608        99.3925 
 114   0.0000       3.677168       100.0608 
 115   0.0000       3.678905       100.1081 
 116   0.0000       3.795195       103.2725 
 117   0.0000       3.953529       107.5810 
 118   0.0000       4.033104       109.7464 
 119   0.0000       4.120834       112.1336 
 120   0.0000       4.234013       115.2134 
 121   0.0000       4.247787       115.5882 
 122   0.0000       4.261319       115.9564 
 123   0.0000       4.269101       116.1681 
 124   0.0000       4.304518       117.1319 
 125   0.0000       4.332239       117.8862 
 126   0.0000       4.514004       122.8323 
 127   0.0000       4.521742       123.0429 
 128   0.0000       4.563423       124.1771 
 129   0.0000       4.588480       124.8589 
 130   0.0000       4.607512       125.3768 
 131   0.0000       4.971704       135.2870 
 132   0.0000       5.082411       138.2994 
 133   0.0000       5.148418       140.0956 
 134   0.0000       5.247585       142.7940 
 135   0.0000       5.323538       144.8608 
 136   0.0000       5.395949       146.8312 
 137   0.0000       5.470299       148.8544 
 138   0.0000       5.551572       151.0660 
 139   0.0000       5.766785       156.9222 
 140   0.0000       5.773589       157.1073 
 141   0.0000       5.830460       158.6549 
 142   0.0000       5.908272       160.7722 
 143   0.0000       6.095145       165.8573 
 144   0.0000       6.120862       166.5571 
 145   0.0000       6.325492       172.1254 
 146   0.0000       6.519658       177.4089 
 147   0.0000       6.598879       179.5646 
 148   0.0000       6.693456       182.1382 
 149   0.0000       6.710793       182.6100 
 150   0.0000       6.771832       184.2709 
 151   0.0000       6.793375       184.8571 
 152   0.0000       6.991250       190.2416 
 153   0.0000       7.061171       192.1442 
 154   0.0000       7.180650       195.3954 
 155   0.0000       7.216291       196.3653 
 156   0.0000       7.356654       200.1847 
 157   0.0000       7.859269       213.8616 
 158   0.0000       8.877134       241.5591 
 159   0.0000       9.335146       254.0222 
 160   0.0000       9.500128       258.5116 
 161   0.0000       9.549987       259.8684 
 162   0.0000       9.764816       265.7141 
 163   0.0000       9.884723       268.9770 
 164   0.0000       9.919771       269.9307 
 165   0.0000      10.092979       274.6439 
 166   0.0000      11.149595       303.3959 
 167   0.0000      19.086622       519.3734 
 168   0.0000      22.255711       605.6087 
 169   0.0000      43.735132      1190.0934 
 170   0.0000      65.958691      1794.8272 
 171   0.0000     126.405350      3439.6644 

                    ********************************
                    * MULLIKEN POPULATION ANALYSIS *
                    ********************************

-----------------------
MULLIKEN ATOMIC CHARGES
-----------------------
   0 C :    0.000690
   1 O :   -0.001099
   2 H :   -0.000137
   3 H :   -0.001072
   4 H :    0.000092
   5 H :   -0.000345
   6 C :   -0.182581
   7 O :   -0.488119
   8 H :    0.322674
   9 H :    0.103412
  10 H :    0.139273
  11 H :    0.107212
Sum of atomic charges:   -0.0000000

--------------------------------
MULLIKEN REDUCED ORBITAL CHARGES
--------------------------------
  0 C s       :     0.000108  s :     0.000108
      pz      :    -0.000316  p :    -0.000804
      px      :    -0.000305
      py      :    -0.000183
      dz2     :     0.000021  d :     0.000006
      dxz     :    -0.000017
      dyz     :     0.000001
      dx2y2   :     0.000002
      dxy     :    -0.000001
      f0      :     0.000000  f :     0.000000
      f+1     :    -0.000000
      f-1     :    -0.000000
      f+2     :     0.000001
      f-2     :    -0.000000
      f+3     :     0.000000
      f-3     :    -0.000000
  1 O s       :    -0.000065  s :    -0.000065
      pz      :     0.000425  p :     0.001167
      px      :     0.000644
      py      :     0.000099
      dz2     :    -0.000004  d :    -0.000003
      dxz     :     0.000004
      dyz     :    -0.000002
      dx2y2   :    -0.000002
      dxy     :     0.000001
      f0      :    -0.000000  f :    -0.000000
      f+1     :    -0.000000
      f-1     :    -0.000000
      f+2     :     0.000000
      f-2     :     0.000000
      f+3     :     0.000000
      f-3     :    -0.000000
  2 H s       :     0.000143  s :     0.000143
      pz      :    -0.000002  p :    -0.000005
      px      :    -0.000001
      py      :    -0.000002
  3 H s       :     0.001068  s :     0.001068
      pz      :     0.000003  p :     0.000004
      px      :     0.000000
      py      :     0.000000
  4 H s       :    -0.000092  s :    -0.000092
      pz      :     0.000000  p :     0.000000
      px      :     0.000000
      py      :     0.000000
  5 H s       :     0.000343  s :     0.000343
      pz      :     0.000000  p :     0.000002
      px      :     0.000000
      py      :     0.000001
  6 C s       :     3.229201  s :     3.229201
      pz      :     1.084936  p :     2.848810
      px      :     0.832637
      py      :     0.931236
      dz2     :     0.008054  d :     0.097609
      dxz     :     0.033159
      dyz     :     0.008406
      dx2y2   :     0.035998
      dxy     :     0.011992
      f0      :     0.000739  f :     0.006961
      f+1     :     0.001281
      f-1     :     0.000182
      f+2     :     0.000101
      f-2     :     0.001115
      f+3     :     0.002287
      f-3     :     0.001257
  7 O s       :     3.788487  s :     3.788487
      pz      :     1.536652  p :     4.670822
      px      :     1.414878
      py      :     1.719292
      dz2     :     0.006743  d :     0.027152
      dxz     :     0.006341
      dyz     :     0.002861
      dx2y2   :     0.003958
      dxy     :     0.007250
      f0      :     0.000101  f :     0.001657
      f+1     :     0.000502
      f-1     :     0.000092
      f+2     :     0.000199
      f-2     :     0.000174
      f+3     :     0.000222
      f-3     :     0.000367
  8 H s       :     0.630767  s :     0.630767
      pz      :     0.017280  p :     0.046559
      px      :     0.015216
      py      :     0.014063
  9 H s       :     0.877428  s :     0.877428
      pz      :     0.004502  p :     0.019160
      px      :     0.003311
      py      :     0.011347
 10 H s       :     0.840653  s :     0.840653
      pz      :     0.009280  p :     0.020075
      px      :     0.006912
      py      :     0.003883
 11 H s       :     0.873661  s :     0.873661
      pz      :     0.008803  p :     0.019126
      px      :     0.006311
      py      :     0.004012


                     *******************************
                     * LOEWDIN POPULATION ANALYSIS *
                     *******************************

----------------------
LOEWDIN ATOMIC CHARGES
----------------------
   0 C :   -0.004214
   1 O :   -0.004827
   2 H :   -0.000420
   3 H :   -0.000678
   4 H :   -0.000042
   5 H :   -0.000277
   6 C :   -0.379980
   7 O :   -0.101855
   8 H :    0.179967
   9 H :    0.099244
  10 H :    0.114029
  11 H :    0.099053

-------------------------------
LOEWDIN REDUCED ORBITAL CHARGES
-------------------------------
  0 C s       :     0.000604  s :     0.000604
      pz      :     0.000995  p :     0.003486
      px      :     0.002354
      py      :     0.000137
      dz2     :     0.000013  d :     0.000122
      dxz     :     0.000066
      dyz     :     0.000005
      dx2y2   :     0.000033
      dxy     :     0.000005
      f0      :     0.000000  f :     0.000002
      f+1     :     0.000000
      f-1     :     0.000000
      f+2     :     0.000001
      f-2     :     0.000000
      f+3     :     0.000000
      f-3     :     0.000000
  1 O s       :     0.000509  s :     0.000509
      pz      :     0.002592  p :     0.004230
      px      :     0.001365
      py      :     0.000273
      dz2     :     0.000022  d :     0.000086
      dxz     :     0.000048
      dyz     :     0.000008
      dx2y2   :     0.000004
      dxy     :     0.000003
      f0      :     0.000000  f :     0.000002
      f+1     :     0.000001
      f-1     :     0.000000
      f+2     :     0.000000
      f-2     :     0.000000
      f+3     :     0.000000
      f-3     :     0.000000
  2 H s       :     0.000416  s :     0.000416
      pz      :     0.000003  p :     0.000004
      px      :     0.000001
      py      :     0.000000
  3 H s       :     0.000677  s :     0.000677
      pz      :     0.000000  p :     0.000002
      px      :     0.000001
      py      :     0.000000
  4 H s       :     0.000042  s :     0.000042
      pz      :     0.000000  p :     0.000001
      px      :     0.000000
      py      :     0.000000
  5 H s       :     0.000276  s :     0.000276
      pz      :     0.000001  p :     0.000001
      px      :     0.000001
      py      :     0.000000
  6 C s       :     2.876570  s :     2.876570
      pz      :     1.111977  p :     3.060373
      px      :     0.935947
      py      :     1.012450
      dz2     :     0.046184  d :     0.392384
      dxz     :     0.116718
      dyz     :     0.022102
      dx2y2   :     0.128526
      dxy     :     0.078854
      f0      :     0.004581  f :     0.050653
      f+1     :     0.006320
      f-1     :     0.003960
      f+2     :     0.003212
      f-2     :     0.007303
      f+3     :     0.014959
      f-3     :     0.010318
  7 O s       :     3.376184  s :     3.376184
      pz      :     1.529221  p :     4.658027
      px      :     1.435407
      py      :     1.693400
      dz2     :     0.011959  d :     0.063721
      dxz     :     0.017973
      dyz     :     0.004538
      dx2y2   :     0.013112
      dxy     :     0.016140
      f0      :     0.000354  f :     0.003923
      f+1     :     0.000906
      f-1     :     0.000285
      f+2     :     0.000289
      f-2     :     0.000535
      f+3     :     0.000790
      f-3     :     0.000764
  8 H s       :     0.665566  s :     0.665566
      pz      :     0.071249  p :     0.154467
      px      :     0.043234
      py      :     0.039985
  9 H s       :     0.843956  s :     0.843956
      pz      :     0.013590  p :     0.056800
      px      :     0.010455
      py      :     0.032755
 10 H s       :     0.825990  s :     0.825990
      pz      :     0.028727  p :     0.059981
      px      :     0.019775
      py      :     0.011479
 11 H s       :     0.843381  s :     0.843381
      pz      :     0.026838  p :     0.057566
      px      :     0.018769
      py      :     0.011959


                      *****************************
                      * MAYER POPULATION ANALYSIS *
                      *****************************

  NA   - Mulliken gross atomic population
  ZA   - Total nuclear charge
  QA   - Mulliken gross atomic charge
  VA   - Mayer's total valence
  BVA  - Mayer's bonded valence
  FA   - Mayer's free valence

  ATOM       NA         ZA         QA         VA         BVA        FA
  0 C     -0.0007     0.0000     0.0007    -0.0014    -0.0014     0.0000
  1 O      0.0011     0.0000    -0.0011     0.0022     0.0022     0.0000
  2 H      0.0001     0.0000    -0.0001     0.0003     0.0003    -0.0000
  3 H      0.0011     0.0000    -0.0011     0.0021     0.0021    -0.0000
  4 H     -0.0001     0.0000     0.0001    -0.0002    -0.0002    -0.0000
  5 H      0.0003     0.0000    -0.0003     0.0007     0.0007    -0.0000
  6 C      6.1826     6.0000    -0.1826     3.9176     3.9176    -0.0000
  7 O      8.4881     8.0000    -0.4881     1.8706     1.8706    -0.0000
  8 H      0.6773     1.0000     0.3227     0.9112     0.9112    -0.0000
  9 H      0.8966     1.0000     0.1034     0.9564     0.9564    -0.0000
 10 H      0.8607     1.0000     0.1393     0.9561     0.9561     0.0000
 11 H      0.8928     1.0000     0.1072     0.9579     0.9579     0.0000

  Mayer bond orders larger than 0.1
B(  6-C ,  7-O ) :   0.9778 B(  6-C ,  9-H ) :   0.9800 B(  6-C , 10-H ) :   0.9639 
B(  6-C , 11-H ) :   0.9797 B(  7-O ,  8-H ) :   0.8935 

-------
TIMINGS
-------

Total SCF time: 0 days 0 hours 0 min 11 sec 

Total time                  ....      11.780 sec
Sum of individual times     ....      11.414 sec  ( 96.9%)

Fock matrix formation       ....      10.817 sec  ( 91.8%)
  XC integration            ....       3.375 sec  ( 31.2% of F)
    Basis function eval.    ....       0.057 sec  (  1.7% of XC)
    Density eval.           ....       0.065 sec  (  1.9% of XC)
    XC-Functional eval.     ....       0.099 sec  (  2.9% of XC)
    XC-Potential eval.      ....       0.061 sec  (  1.8% of XC)
Diagonalization             ....       0.070 sec  (  0.6%)
Density matrix formation    ....       0.005 sec  (  0.0%)
Population analysis         ....       0.032 sec  (  0.3%)
Initial guess               ....       0.105 sec  (  0.9%)
Orbital Transformation      ....       0.000 sec  (  0.0%)
Orbital Orthonormalization  ....       0.000 sec  (  0.0%)
DIIS solution               ....       0.063 sec  (  0.5%)
SOSCF solution              ....       0.027 sec  (  0.2%)
Grid generation             ....       0.294 sec  (  2.5%)


-------------------------------------------------------------------------------
                          DFT DISPERSION CORRECTION                            
                                                                               
                              DFTD3 V3.1  Rev 1                                
                              USING zero damping                               
-------------------------------------------------------------------------------
The omegaB97X-D3 functional is recognized. Fit by Chai et al.
Active option DFTDOPT                   ...         3   

molecular C6(AA) [au] = 208.897267 


            DFT-D V3
 parameters
 s6 scaling factor         :     1.0000 
 rs6 scaling factor        :     1.2810 
 s8 scaling factor         :     1.0000 
 rs8 scaling factor        :     1.0940 
 Damping factor alpha6     :    14.0000 
 Damping factor alpha8     :    16.0000 
 ad hoc parameters k1-k3   :    16.0000     1.3333    -4.0000 

 Edisp/kcal,au: -0.176107804359  -0.000280645620 
 E6   /kcal   :  -0.039446698 
 E8   /kcal   :  -0.136661106 
 % E8         :  77.600823329 

-------------------------   ----------------
Dispersion correction           -0.000280646
-------------------------   ----------------


-------------------------   --------------------
FINAL SINGLE POINT ENERGY      -115.723947789959
-------------------------   --------------------


                            ***************************************
                            *     ORCA property calculations      *
                            ***************************************

                                    ---------------------
                                    Active property flags
                                    ---------------------
   (+) Dipole Moment


------------------------------------------------------------------------------
                       ORCA ELECTRIC PROPERTIES CALCULATION
------------------------------------------------------------------------------

Dipole Moment Calculation                       ... on
Quadrupole Moment Calculation                   ... off
Polarizability Calculation                      ... off
GBWName                                         ... 5-103_DFT_B.gbw
Electron density file                           ... 5-103_DFT_B.scfp.tmp
The origin for moment calculation is the CENTER OF MASS  = (12.549951, -16.579719 18.614786)

-------------
DIPOLE MOMENT
-------------
                                X             Y             Z
Electronic contribution:      1.50039       1.27698       0.26266
Nuclear contribution   :     -1.66492      -1.72403      -0.75575
                        -----------------------------------------
Total Dipole Moment    :     -0.16454      -0.44704      -0.49309
                        -----------------------------------------
Magnitude (a.u.)       :      0.68561
Magnitude (Debye)      :      1.74267



--------------------
Rotational spectrum 
--------------------
 
Rotational constants in cm-1:     4.425499     0.781747     0.753191 
Rotational constants in MHz : 132673.108542 23436.197818 22580.093590 

 Dipole components along the rotational axes: 
x,y,z [a.u.] :     0.337759    -0.595647     0.034330 
x,y,z [Debye]:     0.858514    -1.514015     0.087260 

 
------------------------------------------------------------------------------
                      ORCA CHELPG CHARGES GENERATION
------------------------------------------------------------------------------

GBW file                           ... 5-103_DFT_B.gbw

Reading the GBW file               ... done

Grid spacing                       ...     0.300000
Point Cut-Off                      ...     2.800000
Van-der-Waals Radii                ...        COSMO
Total charge                       ...            0


Number of points X direction       ...           37
Number of points Y direction       ...           28
Number of points Z direction       ...           32
Maximum number of possible points  ...        33152
Final number of points             ...         6084


CHELPG Charges            
--------------------------------
  0   C   :       0.003118
  1   O   :       0.000728
  2   H   :       0.002242
  3   H   :      -0.000013
  4   H   :      -0.012733
  5   H   :       0.001381
  6   C   :       0.165881
  7   O   :      -0.642734
  8   H   :       0.421631
  9   H   :      -0.007197
 10   H   :       0.070301
 11   H   :      -0.002604
--------------------------------
Total charge:    -0.000000
--------------------------------

CHELPG charges calculated...

Timings for individual parts in CHELPG calculation:
Grid generation                 ...        0.001 sec (=   0.000 min)
Potential calculation           ...        1.201 sec (=   0.020 min)
Fit to the potential            ...        0.002 sec (=   0.000 min)
------------------------------------------------------------------------------


Timings for individual modules:

Sum of individual times         ...       13.985 sec (=   0.233 min)
GTO integral calculation        ...        0.594 sec (=   0.010 min)   4.2 %
SCF iterations                  ...       12.158 sec (=   0.203 min)  86.9 %
CHELPG charge generation        ...        1.234 sec (=   0.021 min)   8.8 %



                             ****ORCA TERMINATED NORMALLY****
TOTAL RUN TIME: 0 days 0 hours 0 minutes 59 seconds 686 msec
