
                                 *****************
                                 * O   R   C   A *
                                 *****************

           --- An Ab Initio, DFT and Semiempirical electronic structure package ---

                  #######################################################
                  #                        -***-                        #
                  #          Department of theory and spectroscopy      #
                  #               Directorship: Frank Neese             #
                  #        Max Planck Institute fuer Kohlenforschung    #
                  #                Kaiser Wilhelm Platz 1               #
                  #                 D-45470 Muelheim/Ruhr               #
                  #                      Germany                        #
                  #                                                     #
                  #                  All rights reserved                #
                  #                        -***-                        #
                  #######################################################


                         Program Version 4.1.2  - RELEASE  -


 With contributions from (in alphabetic order):
   Daniel Aravena         : Magnetic Properties
   Michael Atanasov       : Ab Initio Ligand Field Theory
   Alexander A. Auer      : GIAO ZORA
   Ute Becker             : Parallelization
   Giovanni Bistoni       : ED, Open-shell LED
   Martin Brehm           : Molecular dynamics
   Dmytro Bykov           : SCF Hessian
   Vijay G. Chilkuri      : MRCI spin determinant printing
   Dipayan Datta          : RHF DLPNO-CCSD density
   Achintya Kumar Dutta   : EOM-CC, STEOM-CC
   Dmitry Ganyushin       : Spin-Orbit,Spin-Spin,Magnetic field MRCI
   Miquel Garcia          : C-PCM Hessian
   Yang Guo               : DLPNO-NEVPT2, CIM, IAO-localization
   Andreas Hansen         : Spin unrestricted coupled pair/coupled cluster methods
   Benjamin Helmich-Paris : CASSCF linear response (MC-RPA)
   Lee Huntington         : MR-EOM, pCC
   Robert Izsak           : Overlap fitted RIJCOSX, COSX-SCS-MP3, EOM
   Christian Kollmar      : KDIIS, OOCD, Brueckner-CCSD(T), CCSD density
   Simone Kossmann        : Meta GGA functionals, TD-DFT gradient, OOMP2, MP2 Hessian
   Martin Krupicka        : AUTO-CI
   Lucas Lang             : DCDCAS
   Dagmar Lenk            : GEPOL surface, SMD
   Dimitrios Liakos       : Extrapolation schemes; parallel MDCI
   Dimitrios Manganas     : ROCIS; embedding schemes
   Dimitrios Pantazis     : SARC Basis sets
   Taras Petrenko         : DFT Hessian,TD-DFT gradient, ASA, ECA, R-Raman, ABS, FL, XAS/XES, NRVS
   Peter Pinski           : DLPNO-MP2, DLPNO-MP2 Gradient
   Christoph Reimann      : Effective Core Potentials
   Marius Retegan         : Local ZFS, SOC
   Christoph Riplinger    : Optimizer, TS searches, QM/MM, DLPNO-CCSD(T), (RO)-DLPNO pert. Triples
   Tobias Risthaus        : Range-separated hybrids, TD-DFT gradient, RPA, STAB
   Michael Roemelt        : Restricted open shell CIS
   Masaaki Saitow         : Open-shell DLPNO
   Barbara Sandhoefer     : DKH picture change effects
   Avijit Sen             : IP-ROCIS
   Kantharuban Sivalingam : CASSCF convergence, NEVPT2, FIC-MRCI
   Bernardo de Souza      : ESD, SOC TD-DFT
   Georgi Stoychev        : AutoAux, RI-MP2 NMR
   Willem Van den Heuvel  : Paramagnetic NMR
   Boris Wezisla          : Elementary symmetry handling
   Frank Wennmohs         : Technical directorship


 We gratefully acknowledge several colleagues who have allowed us to
 interface, adapt or use parts of their codes:
   Stefan Grimme, W. Hujo, H. Kruse,             : VdW corrections, initial TS optimization,
                  C. Bannwarth                     DFT functionals, gCP, sTDA/sTD-DF
   Ed Valeev                                     : LibInt (2-el integral package), F12 methods
   Garnet Chan, S. Sharma, J. Yang, R. Olivares  : DMRG
   Ulf Ekstrom                                   : XCFun DFT Library
   Mihaly Kallay                                 : mrcc  (arbitrary order and MRCC methods)
   Andreas Klamt, Michael Diedenhofen            : otool_cosmo (COSMO solvation model)
   Jiri Pittner, Ondrej Demel                    : Mk-CCSD
   Frank Weinhold                                : gennbo (NPA and NBO analysis)
   Christopher J. Cramer and Donald G. Truhlar   : smd solvation model
   Lars Goerigk                                  : TD-DFT with DH, B97 family of functionals
   V. Asgeirsson, H. Jonsson                     : NEB implementation
   FAccTs GmbH                                   : IRC, NEB, NEB-TS, Multilevel


 Your calculation uses the libint2 library for the computation of 2-el integrals
 For citations please refer to: http://libint.valeyev.net

 This ORCA versions uses:
   CBLAS   interface :  Fast vector & matrix operations
   LAPACKE interface :  Fast linear algebra routines
   SCALAPACK package :  Parallel linear algebra routines


Your calculation utilizes the atom-pairwise dispersion correction
with the zero-damping scheme (D30)
Cite in your paper:
S.Grimme, J.Antony, S.Ehrlich and H.Krieg, J.Chem.Phys., 132, (2010), 154104 
   

XCFun DFT library Copyright 2009-2010 Ulf Ekstrom and contributors.
See http://admol.org/xcfun for more information. This is free soft-
ware; see the source code for copying conditions. There is ABSOLUTELY
NO WARRANTY; not even for MERCHANTABILITY or FITNESS FOR A PARTICULAR
PURPOSE. For details see the documentation. Scientific users of this 
library should cite U. Ekstrom, L. Visscher, R. Bast, A. J. Thorvald-
sen and K. Ruud; J.Chem.Theor.Comp. 2010, DOI: 10.1021/ct100117s
XCFun Version 0.99 
----- Orbital basis set information -----
Your calculation utilizes the basis: def2-TZVP
   F. Weigend and R. Ahlrichs, Phys. Chem. Chem. Phys. 7, 3297 (2005).

================================================================================
                                        WARNINGS
                       Please study these warnings very carefully!
================================================================================


WARNING: Geometry Optimization
  ===> : Switching off AutoStart
         For restart on a previous wavefunction, please use MOREAD

INFO   : the flag for use of LIBINT has been found!

================================================================================
                                       INPUT FILE
================================================================================
NAME = bonds_angles_[1[8[6]]]-[8[6[1][1][1]][1]]_9.in
|  1> #Run DFT geometry optimization
|  2> ! wB97X-D3 def2-TZVP TIGHTSCF Grid5 FinalGrid6 Opt CHELPG PAL4
|  3> 
|  4> %base "9_geo_opt"
|  5> %geom MaxIter 500
|  6> end
|  7> 
|  8> %geom
|  9>   Constraints
| 10>     { B 2 1 C }
| 11>   end
| 12> end
| 13> 
| 14> 
| 15> * xyz 0 1
| 16>   C                    3.011465             -1.180584            0.598299            
| 17>   O                    4.394831             -1.127737            0.874115            
| 18>   H                    4.772038             -0.379335            0.412686            
| 19>   H                    2.806592             -1.318652            -0.469543           
| 20>   H                    2.611790             -2.039952            1.135705            
| 21>   H                    2.484915             -0.284178            0.945466            
| 22> *
| 23> 
| 24>                          ****END OF INPUT****
================================================================================

                       *****************************
                       * Geometry Optimization Run *
                       *****************************

Geometry optimization settings:
Update method            Update   .... BFGS
Choice of coordinates    CoordSys .... Z-matrix Internals
Initial Hessian          InHess   .... Almoef's Model

Convergence Tolerances:
Energy Change            TolE     ....  5.0000e-06 Eh
Max. Gradient            TolMAXG  ....  3.0000e-04 Eh/bohr
RMS Gradient             TolRMSG  ....  1.0000e-04 Eh/bohr
Max. Displacement        TolMAXD  ....  4.0000e-03 bohr
RMS Displacement         TolRMSD  ....  2.0000e-03 bohr

------------------------------------------------------------------------------
                        ORCA OPTIMIZATION COORDINATE SETUP
------------------------------------------------------------------------------

The optimization will be done in new redundant internal coordinates
Making redundant internal coordinates   ...  (new redundants) done
Evaluating the initial hessian          ...  (Almloef) done
Evaluating the coordinates              ...  done
Calculating the B-matrix                .... done
Calculating the G-matrix                .... done
Diagonalizing the G-matrix              .... done
Imposing constraints:
 Iter   0:  RMS(Cart)=    0.0000000000 RMS(Int)=    0.0000000000
CONVERGED
The first mode is                       ....    3
The number of degrees of freedom        ....   12
Storing new coordinates                 .... done

    -----------------------------------------------------------------
                    Redundant Internal Coordinates


    -----------------------------------------------------------------
         Definition                    Initial Value    Approx d2E/dq
    -----------------------------------------------------------------
      1. B(O   1,C   0)                  1.4116         0.516940   
      2. B(H   2,O   1)                  0.9567         0.526265 C 
      3. B(H   3,C   0)                  1.0960         0.352187   
      4. B(H   4,C   0)                  1.0895         0.360733   
      5. B(H   5,C   0)                  1.0960         0.352186   
      6. A(O   1,C   0,H   4)          107.0169         0.340286   
      7. A(O   1,C   0,H   3)          112.2263         0.338926   
      8. A(O   1,C   0,H   5)          112.2281         0.338926   
      9. A(H   3,C   0,H   5)          108.7730         0.288819   
     10. A(H   4,C   0,H   5)          108.2173         0.289907   
     11. A(H   3,C   0,H   4)          108.2177         0.289907   
     12. A(C   0,O   1,H   2)          108.7499         0.359521   
     13. D(H   2,O   1,C   0,H   5)    -61.4304         0.021176   
     14. D(H   2,O   1,C   0,H   3)     61.4271         0.021176   
     15. D(H   2,O   1,C   0,H   4)    179.9980         0.021176   
    -----------------------------------------------------------------

Number of atoms                         .... 6
Number of degrees of freedom            .... 15

         *************************************************************
         *                GEOMETRY OPTIMIZATION CYCLE   1            *
         *************************************************************
---------------------------------
CARTESIAN COORDINATES (ANGSTROEM)
---------------------------------
  C      3.011465   -1.180584    0.598299
  O      4.394831   -1.127737    0.874115
  H      4.772038   -0.379335    0.412686
  H      2.806592   -1.318652   -0.469543
  H      2.611790   -2.039952    1.135705
  H      2.484915   -0.284178    0.945466

----------------------------
CARTESIAN COORDINATES (A.U.)
----------------------------
  NO LB      ZA    FRAG     MASS         X           Y           Z
   0 C     6.0000    0    12.011    5.690844   -2.230980    1.130621
   1 O     8.0000    0    15.999    8.305027   -2.131114    1.651838
   2 H     1.0000    0     1.008    9.017845   -0.716839    0.779864
   3 H     1.0000    0     1.008    5.303690   -2.491891   -0.887308
   4 H     1.0000    0     1.008    4.935568   -3.854951    2.146171
   5 H     1.0000    0     1.008    4.695809   -0.537019    1.786672

--------------------------------
INTERNAL COORDINATES (ANGSTROEM)
--------------------------------
 C      0   0   0     0.000000000000     0.00000000     0.00000000
 O      1   0   0     1.411583777613     0.00000000     0.00000000
 H      2   1   0     0.956716988714   108.74986927     0.00000000
 H      1   2   3     1.096048473252   112.22628004    61.42709481
 H      1   2   3     1.089522222759   107.01687047   179.99802134
 H      1   2   3     1.096049061505   112.22810992   298.56956508

---------------------------
INTERNAL COORDINATES (A.U.)
---------------------------
 C      0   0   0     0.000000000000     0.00000000     0.00000000
 O      1   0   0     2.667506754775     0.00000000     0.00000000
 H      2   1   0     1.807933096339   108.74986927     0.00000000
 H      1   2   3     2.071231443948   112.22628004    61.42709481
 H      1   2   3     2.058898617835   107.01687047   179.99802134
 H      1   2   3     2.071232555585   112.22810992   298.56956508

---------------------
BASIS SET INFORMATION
---------------------
There are 3 groups of distinct atoms

 Group   1 Type C   : 11s6p2d1f contracted to 5s3p2d1f pattern {62111/411/11/1}
 Group   2 Type O   : 11s6p2d1f contracted to 5s3p2d1f pattern {62111/411/11/1}
 Group   3 Type H   : 5s1p contracted to 3s1p pattern {311/1}

Atom   0C    basis set group =>   1
Atom   1O    basis set group =>   2
Atom   2H    basis set group =>   3
Atom   3H    basis set group =>   3
Atom   4H    basis set group =>   3
Atom   5H    basis set group =>   3


           ************************************************************
           *        Program running with 4 parallel MPI-processes     *
           *              working on a common directory               *
           ************************************************************
------------------------------------------------------------------------------
                           ORCA GTO INTEGRAL CALCULATION
------------------------------------------------------------------------------

                         BASIS SET STATISTICS AND STARTUP INFO

 # of primitive gaussian shells          ...   64
 # of primitive gaussian functions       ...  124
 # of contracted shells                  ...   38
 # of contracted basis functions         ...   86
 Highest angular momentum                ...    3
 Maximum contraction depth               ...    6
 Integral package used                   ... LIBINT
 Integral threshhold            Thresh   ...  2.500e-11
 Primitive cut-off              TCut     ...  2.500e-12


------------------------------ INTEGRAL EVALUATION ----------------------------


 * One electron integrals 
 Pre-screening matrix                    ... done
 Shell pair data                         ... done (   0.000 sec)



           ************************************************************
           *        Program running with 4 parallel MPI-processes     *
           *              working on a common directory               *
           ************************************************************
-------------------------------------------------------------------------------
                                 ORCA SCF
-------------------------------------------------------------------------------

------------
SCF SETTINGS
------------
Hamiltonian:
 Density Functional     Method          .... DFT(GTOs)
 Exchange Functional    Exchange        .... WB97X-D3
 Correlation Functional Correlation     .... WB97X-D3
 Gradients option       PostSCFGGA      .... off
 Hybrid DFT is turned on
   Fraction HF Exchange ScalHFX         ....  0.195728
   Scaling of DF-GGA-X  ScalDFX         ....  0.000000
   Scaling of DF-GGA-C  ScalDFC         ....  1.000000
   Scaling of DF-LDA-C  ScalLDAC        ....  1.000000
   Perturbative correction              ....  0.000000
   Density functional embedding theory  .... OFF
 Long-range corrected/Screened/Range-Separated Hybrid DFT is turned on
   Amount of maximum screened exact exchange              ....  0.804272
   Range separation parameter mu (erf(mu*r12)/r12)        ....  0.250000


General Settings:
 Integral files         IntName         .... 9_geo_opt
 Hartree-Fock type      HFTyp           .... RHF
 Total Charge           Charge          ....    0
 Multiplicity           Mult            ....    1
 Number of Electrons    NEL             ....   18
 Basis Dimension        Dim             ....   86
 Nuclear Repulsion      ENuc            ....     40.4424701382 Eh

Convergence Acceleration:
 DIIS                   CNVDIIS         .... on
   Start iteration      DIISMaxIt       ....    12
   Startup error        DIISStart       ....  0.200000
   # of expansion vecs  DIISMaxEq       ....     5
   Bias factor          DIISBfac        ....   1.050
   Max. coefficient     DIISMaxC        ....  10.000
 Newton-Raphson         CNVNR           .... off
 SOSCF                  CNVSOSCF        .... on
   Start iteration      SOSCFMaxIt      ....   150
   Startup grad/error   SOSCFStart      ....  0.003300
 Level Shifting         CNVShift        .... on
   Level shift para.    LevelShift      ....    0.2500
   Turn off err/grad.   ShiftErr        ....    0.0010
 Zerner damping         CNVZerner       .... off
 Static damping         CNVDamp         .... on
   Fraction old density DampFac         ....    0.7000
   Max. Damping (<1)    DampMax         ....    0.9800
   Min. Damping (>=0)   DampMin         ....    0.0000
   Turn off err/grad.   DampErr         ....    0.1000
 Fernandez-Rico         CNVRico         .... off

SCF Procedure:
 Maximum # iterations   MaxIter         ....   125
 SCF integral mode      SCFMode         .... Direct
   Integral package                     .... LIBINT
 Reset frequency        DirectResetFreq ....    20
 Integral Threshold     Thresh          ....  2.500e-11 Eh
 Primitive CutOff       TCut            ....  2.500e-12 Eh

Convergence Tolerance:
 Convergence Check Mode ConvCheckMode   .... Total+1el-Energy
 Convergence forced     ConvForced      .... 0
 Energy Change          TolE            ....  1.000e-08 Eh
 1-El. energy change                    ....  1.000e-05 Eh
 Orbital Gradient       TolG            ....  1.000e-05
 Orbital Rotation angle TolX            ....  1.000e-05
 DIIS Error             TolErr          ....  5.000e-07


Diagonalization of the overlap matrix:
Smallest eigenvalue                        ... 1.650e-03
Time for diagonalization                   ...    0.130 sec
Threshold for overlap eigenvalues          ... 1.000e-08
Number of eigenvalues below threshold      ... 0
Time for construction of square roots      ...    0.005 sec
Total time needed                          ...    0.136 sec

-------------------
DFT GRID GENERATION
-------------------

General Integration Accuracy     IntAcc      ...  5.010
Radial Grid Type                 RadialGrid  ... Gauss-Chebyshev
Angular Grid (max. acc.)         AngularGrid ... Lebedev-434
Angular grid pruning method      GridPruning ... 3 (G Style)
Weight generation scheme         WeightScheme... Becke
Basis function cutoff            BFCut       ...    1.0000e-11
Integration weight cutoff        WCut        ...    1.0000e-14
Grids for H and He will be reduced by one unit

# of grid points (after initial pruning)     ...  48308 (   0.0 sec)
# of grid points (after weights+screening)   ...  46677 (   0.0 sec)
nearest neighbour list constructed           ...    0.0 sec
Grid point re-assignment to atoms done       ...    0.0 sec
Grid point division into batches done        ...    0.3 sec
Reduced shell lists constructed in    0.3 sec

Total number of grid points                  ...    46677
Total number of batches                      ...      733
Average number of points per batch           ...       63
Average number of grid points per atom       ...     7780
Average number of shells per batch           ...    33.12 (87.16%)
Average number of basis functions per batch  ...    76.78 (89.28%)
Average number of large shells per batch     ...    30.62 (92.44%)
Average number of large basis fcns per batch ...    72.22 (94.05%)
Maximum spatial batch extension              ...  15.77, 14.99, 16.58 au
Average spatial batch extension              ...   0.41,  0.40,  0.43 au

Time for grid setup =    0.446 sec

------------------------------
INITIAL GUESS: MODEL POTENTIAL
------------------------------
Loading Hartree-Fock densities                     ... done
Calculating cut-offs                               ... done
Setting up the integral package                    ... done
Initializing the effective Hamiltonian             ... done
Starting the Coulomb interaction                   ... done (   0.0 sec)
Reading the grid                                   ... done
Mapping shells                                     ... done
Starting the XC term evaluation                    ... done (   0.1 sec)
  promolecular density results
     # of electrons  =     17.998045216
     EX              =    -14.430473785
     EC              =     -0.575135979
     EX+EC           =    -15.005609764
Transforming the Hamiltonian                       ... done (   0.0 sec)
Diagonalizing the Hamiltonian                      ... done (   0.0 sec)
Back transforming the eigenvectors                 ... done (   0.0 sec)
Now organizing SCF variables                       ... done
                      ------------------
                      INITIAL GUESS DONE (   0.6 sec)
                      ------------------
--------------
SCF ITERATIONS
--------------
ITER       Energy         Delta-E        Max-DP      RMS-DP      [F,P]     Damp
               ***  Starting incremental Fock matrix formation  ***
  0   -115.6511864707   0.000000000000 0.03698474  0.00147485  0.2524306 0.7000
  1   -115.6882623248  -0.037075854144 0.02203355  0.00104092  0.1263023 0.7000
                               ***Turning on DIIS***
  2   -115.7053314555  -0.017069130642 0.03157078  0.00188146  0.0491285 0.0000
  3   -115.7330763739  -0.027744918409 0.01774633  0.00068028  0.0611475 0.0000
  4   -115.7376009298  -0.004524555872 0.00406546  0.00013178  0.0065504 0.0000
                      *** Initiating the SOSCF procedure ***
                           *** Shutting down DIIS ***
                      *** Re-Reading the Fockian *** 
                      *** Removing any level shift *** 
ITER      Energy       Delta-E        Grad      Rot      Max-DP    RMS-DP
  5   -115.73769506  -0.0000941269  0.000489  0.000489  0.000677  0.000043
               *** Restarting incremental Fock matrix formation ***
  6   -115.73770319  -0.0000081345  0.000152  0.000203  0.000490  0.000026
  7   -115.73770391  -0.0000007221  0.000056  0.000109  0.000208  0.000011
  8   -115.73770397  -0.0000000575  0.000019  0.000017  0.000030  0.000001
  9   -115.73770398  -0.0000000055  0.000010  0.000008  0.000015  0.000001
 10   -115.73770398  -0.0000000015  0.000003  0.000003  0.000003  0.000000
                  ***Gradient check signals convergence***
              ***Rediagonalizing the Fockian in SOSCF/NRSCF***

               *****************************************************
               *                     SUCCESS                       *
               *           SCF CONVERGED AFTER  11 CYCLES          *
               *****************************************************

Setting up the final grid:

General Integration Accuracy     IntAcc      ...  5.340
Radial Grid Type                 RadialGrid  ... Gauss-Chebyshev
Angular Grid (max. acc.)         AngularGrid ... Lebedev-590
Angular grid pruning method      GridPruning ... 3 (G Style)
Weight generation scheme         WeightScheme... Becke
Basis function cutoff            BFCut       ...    1.0000e-11
Integration weight cutoff        WCut        ...    1.0000e-14
Grids for H and He will be reduced by one unit

# of grid points (after initial pruning)     ...  77324 (   0.0 sec)
# of grid points (after weights+screening)   ...  74512 (   0.0 sec)
nearest neighbour list constructed           ...    0.0 sec
Grid point re-assignment to atoms done       ...    0.0 sec
Grid point division into batches done        ...    0.8 sec
Reduced shell lists constructed in    0.8 sec

Total number of grid points                  ...    74512
Total number of batches                      ...     1167
Average number of points per batch           ...       63
Average number of grid points per atom       ...    12419
Average number of shells per batch           ...    32.94 (86.68%)
Average number of basis functions per batch  ...    76.37 (88.80%)
Average number of large shells per batch     ...    30.31 (92.01%)
Average number of large basis fcns per batch ...    71.49 (93.62%)
Maximum spatial batch extension              ...  13.18, 14.25, 15.48 au
Average spatial batch extension              ...   0.34,  0.36,  0.37 au

Final grid set up in    0.9 sec
Final integration                            ... done (   0.2 sec)
Change in XC energy                          ...    -0.000107583
Integrated number of electrons               ...    18.000000745
Previous integrated no of electrons          ...    18.000002270

----------------
TOTAL SCF ENERGY
----------------

Total Energy       :         -115.73781156 Eh           -3149.38596 eV

Components:
Nuclear Repulsion  :           40.44247014 Eh            1100.49556 eV
Electronic Energy  :         -156.18028170 Eh           -4249.88152 eV
One Electron Energy:         -237.30322776 Eh           -6457.34911 eV
Two Electron Energy:           81.12294606 Eh            2207.46759 eV

Virial components:
Potential Energy   :         -230.98989157 Eh           -6285.55450 eV
Kinetic Energy     :          115.25208001 Eh            3136.16854 eV
Virial Ratio       :            2.00421451


DFT components:
N(Alpha)           :        9.000000372590 electrons
N(Beta)            :        9.000000372590 electrons
N(Total)           :       18.000000745180 electrons
E(XC)              :      -10.655920577472 Eh       
DFET-embed. en.    :        0.000000000000 Eh       

---------------
SCF CONVERGENCE
---------------

  Last Energy change         ...   -8.4583e-11  Tolerance :   1.0000e-08
  Last MAX-Density change    ...    1.8647e-06  Tolerance :   1.0000e-07
  Last RMS-Density change    ...    7.8173e-08  Tolerance :   5.0000e-09
  Last Orbital Gradient      ...    1.3506e-06  Tolerance :   1.0000e-05
  Last Orbital Rotation      ...    7.8069e-07  Tolerance :   1.0000e-05

             **** THE GBW FILE WAS UPDATED (9_geo_opt.gbw) ****
             **** DENSITY FILE WAS UPDATED (9_geo_opt.scfp.tmp) ****
             **** ENERGY FILE WAS UPDATED (9_geo_opt.en.tmp) ****
----------------
ORBITAL ENERGIES
----------------

  NO   OCC          E(Eh)            E(eV) 
   0   2.0000     -19.228016      -523.2209 
   1   2.0000     -10.315126      -280.6889 
   2   2.0000      -1.136957       -30.9382 
   3   2.0000      -0.795422       -21.6445 
   4   2.0000      -0.611685       -16.6448 
   5   2.0000      -0.541789       -14.7428 
   6   2.0000      -0.526348       -14.3227 
   7   2.0000      -0.433831       -11.8051 
   8   2.0000      -0.373637       -10.1672 
   9   0.0000       0.116727         3.1763 
  10   0.0000       0.156712         4.2643 
  11   0.0000       0.202575         5.5123 
  12   0.0000       0.205110         5.5813 
  13   0.0000       0.226397         6.1606 
  14   0.0000       0.304325         8.2811 
  15   0.0000       0.313358         8.5269 
  16   0.0000       0.404506        11.0072 
  17   0.0000       0.452645        12.3171 
  18   0.0000       0.485247        13.2042 
  19   0.0000       0.535842        14.5810 
  20   0.0000       0.543660        14.7937 
  21   0.0000       0.567703        15.4480 
  22   0.0000       0.598571        16.2879 
  23   0.0000       0.603500        16.4221 
  24   0.0000       0.671457        18.2713 
  25   0.0000       0.779001        21.1977 
  26   0.0000       0.832206        22.6455 
  27   0.0000       0.861273        23.4364 
  28   0.0000       0.989580        26.9278 
  29   0.0000       1.013948        27.5909 
  30   0.0000       1.109757        30.1980 
  31   0.0000       1.382761        37.6268 
  32   0.0000       1.512938        41.1691 
  33   0.0000       1.553623        42.2762 
  34   0.0000       1.602865        43.6162 
  35   0.0000       1.613099        43.8946 
  36   0.0000       1.624150        44.1954 
  37   0.0000       1.660090        45.1734 
  38   0.0000       1.687965        45.9319 
  39   0.0000       1.774515        48.2870 
  40   0.0000       1.952156        53.1209 
  41   0.0000       2.030849        55.2622 
  42   0.0000       2.055243        55.9260 
  43   0.0000       2.094169        56.9852 
  44   0.0000       2.114724        57.5446 
  45   0.0000       2.268814        61.7376 
  46   0.0000       2.333410        63.4953 
  47   0.0000       2.345580        63.8265 
  48   0.0000       2.381118        64.7935 
  49   0.0000       2.429535        66.1110 
  50   0.0000       2.497625        67.9638 
  51   0.0000       2.596503        70.6544 
  52   0.0000       2.639916        71.8358 
  53   0.0000       2.707914        73.6861 
  54   0.0000       2.842305        77.3430 
  55   0.0000       2.871352        78.1335 
  56   0.0000       2.888620        78.6033 
  57   0.0000       2.992960        81.4426 
  58   0.0000       3.096067        84.2483 
  59   0.0000       3.173164        86.3462 
  60   0.0000       3.299305        89.7786 
  61   0.0000       3.408369        92.7464 
  62   0.0000       3.442046        93.6628 
  63   0.0000       3.488289        94.9212 
  64   0.0000       3.612595        98.3037 
  65   0.0000       3.645253        99.1924 
  66   0.0000       3.667068        99.7860 
  67   0.0000       4.006447       109.0210 
  68   0.0000       4.223778       114.9348 
  69   0.0000       4.273429       116.2859 
  70   0.0000       4.455836       121.2495 
  71   0.0000       4.564463       124.2054 
  72   0.0000       5.346098       145.4747 
  73   0.0000       5.425520       147.6359 
  74   0.0000       5.554949       151.1578 
  75   0.0000       5.826093       158.5360 
  76   0.0000       5.834304       158.7595 
  77   0.0000       5.985955       162.8861 
  78   0.0000       6.381946       173.6616 
  79   0.0000       6.531037       177.7185 
  80   0.0000       6.745361       183.5506 
  81   0.0000       6.804016       185.1467 
  82   0.0000       7.039468       191.5537 
  83   0.0000       7.216725       196.3771 
  84   0.0000      22.406096       609.7009 
  85   0.0000      43.664057      1188.1594 

                    ********************************
                    * MULLIKEN POPULATION ANALYSIS *
                    ********************************

-----------------------
MULLIKEN ATOMIC CHARGES
-----------------------
   0 C :   -0.150860
   1 O :   -0.477536
   2 H :    0.312900
   3 H :    0.098631
   4 H :    0.118230
   5 H :    0.098634
Sum of atomic charges:   -0.0000000

--------------------------------
MULLIKEN REDUCED ORBITAL CHARGES
--------------------------------
  0 C s       :     3.223100  s :     3.223100
      pz      :     1.047261  p :     2.826104
      px      :     0.702197
      py      :     1.076647
      dz2     :     0.011106  d :     0.094235
      dxz     :     0.032491
      dyz     :     0.002644
      dx2y2   :     0.012739
      dxy     :     0.035254
      f0      :     0.001356  f :     0.007421
      f+1     :     0.000956
      f-1     :     0.000175
      f+2     :     0.001464
      f-2     :     0.000123
      f+3     :     0.001360
      f-3     :     0.001986
  1 O s       :     3.792583  s :     3.792583
      pz      :     1.759432  p :     4.652690
      px      :     1.313614
      py      :     1.579644
      dz2     :     0.003137  d :     0.030576
      dxz     :     0.006477
      dyz     :     0.005835
      dx2y2   :     0.008934
      dxy     :     0.006192
      f0      :     0.000270  f :     0.001687
      f+1     :     0.000233
      f-1     :     0.000087
      f+2     :     0.000288
      f-2     :     0.000235
      f+3     :     0.000368
      f-3     :     0.000206
  2 H s       :     0.639307  s :     0.639307
      pz      :     0.017044  p :     0.047792
      px      :     0.012747
      py      :     0.018001
  3 H s       :     0.882005  s :     0.882005
      pz      :     0.012072  p :     0.019365
      px      :     0.003007
      py      :     0.004286
  4 H s       :     0.861550  s :     0.861550
      pz      :     0.006297  p :     0.020219
      px      :     0.004194
      py      :     0.009729
  5 H s       :     0.882002  s :     0.882002
      pz      :     0.004929  p :     0.019364
      px      :     0.004977
      py      :     0.009458


                     *******************************
                     * LOEWDIN POPULATION ANALYSIS *
                     *******************************

----------------------
LOEWDIN ATOMIC CHARGES
----------------------
   0 C :   -0.385066
   1 O :   -0.075715
   2 H :    0.165280
   3 H :    0.093404
   4 H :    0.108696
   5 H :    0.093402

-------------------------------
LOEWDIN REDUCED ORBITAL CHARGES
-------------------------------
  0 C s       :     2.862925  s :     2.862925
      pz      :     1.096640  p :     3.052215
      px      :     0.846025
      py      :     1.109550
      dz2     :     0.072405  d :     0.412907
      dxz     :     0.114032
      dyz     :     0.020706
      dx2y2   :     0.082127
      dxy     :     0.123636
      f0      :     0.007821  f :     0.057020
      f+1     :     0.007162
      f-1     :     0.000855
      f+2     :     0.012527
      f-2     :     0.004830
      f+3     :     0.011733
      f-3     :     0.012092
  1 O s       :     3.365845  s :     3.365845
      pz      :     1.699031  p :     4.633643
      px      :     1.381105
      py      :     1.553507
      dz2     :     0.006131  d :     0.071579
      dxz     :     0.017864
      dyz     :     0.008091
      dx2y2   :     0.019343
      dxy     :     0.020149
      f0      :     0.000484  f :     0.004648
      f+1     :     0.000622
      f-1     :     0.000072
      f+2     :     0.001052
      f-2     :     0.000561
      f+3     :     0.000891
      f-3     :     0.000966
  2 H s       :     0.675268  s :     0.675268
      pz      :     0.055898  p :     0.159452
      px      :     0.034004
      py      :     0.069551
  3 H s       :     0.846771  s :     0.846771
      pz      :     0.036183  p :     0.059825
      px      :     0.009713
      py      :     0.013929
  4 H s       :     0.831710  s :     0.831710
      pz      :     0.019212  p :     0.059594
      px      :     0.011607
      py      :     0.028775
  5 H s       :     0.846773  s :     0.846773
      pz      :     0.015605  p :     0.059825
      px      :     0.015203
      py      :     0.029017


                      *****************************
                      * MAYER POPULATION ANALYSIS *
                      *****************************

  NA   - Mulliken gross atomic population
  ZA   - Total nuclear charge
  QA   - Mulliken gross atomic charge
  VA   - Mayer's total valence
  BVA  - Mayer's bonded valence
  FA   - Mayer's free valence

  ATOM       NA         ZA         QA         VA         BVA        FA
  0 C      6.1509     6.0000    -0.1509     3.9349     3.9349    -0.0000
  1 O      8.4775     8.0000    -0.4775     1.8882     1.8882     0.0000
  2 H      0.6871     1.0000     0.3129     0.9138     0.9138    -0.0000
  3 H      0.9014     1.0000     0.0986     0.9596     0.9596    -0.0000
  4 H      0.8818     1.0000     0.1182     0.9598     0.9598    -0.0000
  5 H      0.9014     1.0000     0.0986     0.9596     0.9596    -0.0000

  Mayer bond orders larger than 0.1
B(  0-C ,  1-O ) :   0.9986 B(  0-C ,  3-H ) :   0.9755 B(  0-C ,  4-H ) :   0.9750 
B(  0-C ,  5-H ) :   0.9755 B(  1-O ,  2-H ) :   0.9004 

-------
TIMINGS
-------

Total SCF time: 0 days 0 hours 0 min 9 sec 

Total time                  ....       9.065 sec
Sum of individual times     ....       8.531 sec  ( 94.1%)

Fock matrix formation       ....       6.945 sec  ( 76.6%)
  XC integration            ....       1.894 sec  ( 27.3% of F)
    Basis function eval.    ....       0.405 sec  ( 21.4% of XC)
    Density eval.           ....       0.258 sec  ( 13.6% of XC)
    XC-Functional eval.     ....       0.658 sec  ( 34.7% of XC)
    XC-Potential eval.      ....       0.271 sec  ( 14.3% of XC)
Diagonalization             ....       0.032 sec  (  0.4%)
Density matrix formation    ....       0.002 sec  (  0.0%)
Population analysis         ....       0.017 sec  (  0.2%)
Initial guess               ....       0.162 sec  (  1.8%)
Orbital Transformation      ....       0.000 sec  (  0.0%)
Orbital Orthonormalization  ....       0.000 sec  (  0.0%)
DIIS solution               ....       0.018 sec  (  0.2%)
SOSCF solution              ....       0.024 sec  (  0.3%)
Grid generation             ....       1.332 sec  ( 14.7%)


-------------------------------------------------------------------------------
                          DFT DISPERSION CORRECTION                            
                                                                               
                              DFTD3 V3.1  Rev 1                                
                              USING zero damping                               
-------------------------------------------------------------------------------
The omegaB97X-D3 functional is recognized. Fit by Chai et al.
Active option DFTDOPT                   ...         3   

molecular C6(AA) [au] = 208.714879 


            DFT-D V3
 parameters
 s6 scaling factor         :     1.0000 
 rs6 scaling factor        :     1.2810 
 s8 scaling factor         :     1.0000 
 rs8 scaling factor        :     1.0940 
 Damping factor alpha6     :    14.0000 
 Damping factor alpha8     :    16.0000 
 ad hoc parameters k1-k3   :    16.0000     1.3333    -4.0000 

 Edisp/kcal,au: -0.150092239924  -0.000239187184 
 E6   /kcal   :  -0.029578272 
 E8   /kcal   :  -0.120513968 
 % E8         :  80.293270511 

-------------------------   ----------------
Dispersion correction           -0.000239187
-------------------------   ----------------


-------------------------   --------------------
FINAL SINGLE POINT ENERGY      -115.738050748142
-------------------------   --------------------



           ************************************************************
           *        Program running with 4 parallel MPI-processes     *
           *              working on a common directory               *
           ************************************************************
------------------------------------------------------------------------------
                         ORCA SCF GRADIENT CALCULATION
------------------------------------------------------------------------------

Gradient of the Kohn-Sham DFT energy:
Kohn-Sham wavefunction type      ... RKS
Hartree-Fock exchange scaling    ...    0.196
Number of operators              ...    1
Number of atoms                  ...    6
Basis set dimensions             ...   86
Integral neglect threshold       ... 2.5e-11
Integral primitive cutoff        ... 2.5e-12

Nuclear repulsion gradient       ... done
One Electron Gradient            ... done
Pre-screening matrix             ... done
Starting the two electron gradient:
Two electron gradient done
Exchange-correlation gradient    ... done
Dispersion correction            ... done

------------------
CARTESIAN GRADIENT
------------------

   1   C   :   -0.000096068    0.000050373   -0.000058107
   2   O   :    0.000376200    0.000600389   -0.000355094
   3   H   :   -0.000340643   -0.000636467    0.000386285
   4   H   :    0.000006493    0.000004153    0.000000589
   5   H   :    0.000044463   -0.000017953    0.000018184
   6   H   :    0.000009556   -0.000000496    0.000008143

Difference to translation invariance:
           :    0.0000000000   -0.0000000000   -0.0000000000

Norm of the cartesian gradient     ...    0.0011473537
RMS gradient                       ...    0.0002704339
MAX gradient                       ...    0.0006364675

-------
TIMINGS
-------

Total SCF gradient time            ...        1.667 sec

One electron gradient       ....       0.006 sec  (  0.3%)
Prescreening matrices       ....       0.025 sec  (  1.5%)
Two electron gradient       ....       0.844 sec  ( 50.6%)
XC gradient                 ....       0.428 sec  ( 25.7%)
------------------------------------------------------------------------------
                         ORCA GEOMETRY RELAXATION STEP
------------------------------------------------------------------------------

Reading the OPT-File                    .... done
Getting information on internals        .... done
Copying old internal coords+grads       .... done
Making the new internal coordinates     .... (new redundants).... done
Validating the new internal coordinates .... (new redundants).... done
Calculating the B-matrix                .... done
Calculating the G,G- and P matrices     .... done
Transforming gradient to internals      .... done
Projecting the internal gradient        .... done
Number of atoms                         ....   6
Number of internal coordinates          ....  15
Current Energy                          ....  -115.738050748 Eh
Current gradient norm                   ....     0.001147354 Eh/bohr
Maximum allowed component of the step   ....  0.300
Current trust radius                    ....  0.300
Evaluating the initial hessian          ....  (Almloef) done
Projecting the Hessian                  .... done
Forming the augmented Hessian           .... done
Diagonalizing the augmented Hessian     .... done
Last element of RFO vector              ....  0.999999950
Lowest eigenvalues of augmented Hessian:
 -0.000000031  0.021176292  0.181846321  0.192338722  0.313380744
Length of the computed step             ....  0.000316921
The final length of the internal step   ....  0.000316921
Converting the step to cartesian space:
 Initial RMS(Int)=    0.0000818285
Transforming coordinates:
 Iter   0:  RMS(Cart)=    0.0000765418 RMS(Int)=    1.6223021096
 Iter   1:  RMS(Cart)=    0.0000000079 RMS(Int)=    0.0000000082
Imposing constraints:
 Iter   0:  RMS(Cart)=    0.0000000007 RMS(Int)=    0.0000000000
CONVERGED
done
Storing new coordinates                 .... done

                                .--------------------.
          ----------------------|Geometry convergence|-------------------------
          Item                value                   Tolerance       Converged
          ---------------------------------------------------------------------
          RMS gradient        0.0000264586            0.0001000000      YES
          MAX gradient        0.0000747022            0.0003000000      YES
          RMS step            0.0000818285            0.0020000000      YES
          MAX step            0.0002401185            0.0040000000      YES
          ........................................................
          Max(Bonds)      0.0000      Max(Angles)    0.01
          Max(Dihed)        0.01      Max(Improp)    0.00
          ---------------------------------------------------------------------

                    ***********************HURRAY********************
                    ***        THE OPTIMIZATION HAS CONVERGED     ***
                    *************************************************


    ---------------------------------------------------------------------------
                         Redundant Internal Coordinates

                          --- Optimized Parameters ---  
                            (Angstroem and degrees)

        Definition                    OldVal   dE/dq     Step     FinalVal
    ----------------------------------------------------------------------------
     1. B(O   1,C   0)                1.4116  0.000040 -0.0000    1.4115   
     2. B(H   2,O   1)                0.9567 -0.000819  0.0000    0.9567 C 
     3. B(H   3,C   0)                1.0960 -0.000002  0.0000    1.0961   
     4. B(H   4,C   0)                1.0895  0.000007 -0.0000    1.0895   
     5. B(H   5,C   0)                1.0960 -0.000002  0.0000    1.0961   
     6. A(O   1,C   0,H   4)          107.02 -0.000075    0.01    107.03   
     7. A(O   1,C   0,H   3)          112.23  0.000003   -0.00    112.23   
     8. A(O   1,C   0,H   5)          112.23  0.000003   -0.00    112.23   
     9. A(H   3,C   0,H   5)          108.77  0.000015   -0.00    108.77   
    10. A(H   4,C   0,H   5)          108.22  0.000027   -0.00    108.21   
    11. A(H   3,C   0,H   4)          108.22  0.000027   -0.00    108.21   
    12. A(C   0,O   1,H   2)          108.75 -0.000035    0.01    108.76   
    13. D(H   2,O   1,C   0,H   5)    -61.43 -0.000013    0.01    -61.43   
    14. D(H   2,O   1,C   0,H   3)     61.43  0.000011   -0.00     61.43   
    15. D(H   2,O   1,C   0,H   4)    180.00 -0.000001    0.00    180.00   
    ----------------------------------------------------------------------------
                 *******************************************************
                 *** FINAL ENERGY EVALUATION AT THE STATIONARY POINT ***
                 ***               (AFTER    1 CYCLES)               ***
                 *******************************************************
---------------------------------
CARTESIAN COORDINATES (ANGSTROEM)
---------------------------------
  C      3.011507   -1.180627    0.598336
  O      4.394843   -1.127701    0.874077
  H      4.772066   -0.379288    0.412677
  H      2.806602   -1.318666   -0.469507
  H      2.611670   -2.039946    1.135679
  H      2.484943   -0.284210    0.945466

----------------------------
CARTESIAN COORDINATES (A.U.)
----------------------------
  NO LB      ZA    FRAG     MASS         X           Y           Z
   0 C     6.0000    0    12.011    5.690924   -2.231061    1.130691
   1 O     8.0000    0    15.999    8.305050   -2.131045    1.651765
   2 H     1.0000    0     1.008    9.017898   -0.716751    0.779846
   3 H     1.0000    0     1.008    5.303708   -2.491917   -0.887239
   4 H     1.0000    0     1.008    4.935341   -3.854940    2.146123
   5 H     1.0000    0     1.008    4.695862   -0.537079    1.786672

--------------------------------
INTERNAL COORDINATES (ANGSTROEM)
--------------------------------
 C      0   0   0     0.000000000000     0.00000000     0.00000000
 O      1   0   0     1.411542912506     0.00000000     0.00000000
 H      2   1   0     0.956716990651   108.75549929     0.00000000
 H      1   2   3     1.096051581681   112.22560039    61.42574008
 H      1   2   3     1.089512432419   107.03062798   180.00009898
 H      1   2   3     1.096052742355   112.22745307   298.57494722

---------------------------
INTERNAL COORDINATES (A.U.)
---------------------------
 C      0   0   0     0.000000000000     0.00000000     0.00000000
 O      1   0   0     2.667429530914     0.00000000     0.00000000
 H      2   1   0     1.807933100000   108.75549929     0.00000000
 H      1   2   3     2.071237318028   112.22560039    61.42574008
 H      1   2   3     2.058880116774   107.03062798   180.00009898
 H      1   2   3     2.071239511385   112.22745307   298.57494722

---------------------
BASIS SET INFORMATION
---------------------
There are 3 groups of distinct atoms

 Group   1 Type C   : 11s6p2d1f contracted to 5s3p2d1f pattern {62111/411/11/1}
 Group   2 Type O   : 11s6p2d1f contracted to 5s3p2d1f pattern {62111/411/11/1}
 Group   3 Type H   : 5s1p contracted to 3s1p pattern {311/1}

Atom   0C    basis set group =>   1
Atom   1O    basis set group =>   2
Atom   2H    basis set group =>   3
Atom   3H    basis set group =>   3
Atom   4H    basis set group =>   3
Atom   5H    basis set group =>   3


           ************************************************************
           *        Program running with 4 parallel MPI-processes     *
           *              working on a common directory               *
           ************************************************************
------------------------------------------------------------------------------
                           ORCA GTO INTEGRAL CALCULATION
------------------------------------------------------------------------------

                         BASIS SET STATISTICS AND STARTUP INFO

 # of primitive gaussian shells          ...   64
 # of primitive gaussian functions       ...  124
 # of contracted shells                  ...   38
 # of contracted basis functions         ...   86
 Highest angular momentum                ...    3
 Maximum contraction depth               ...    6
 Integral package used                   ... LIBINT
 Integral threshhold            Thresh   ...  2.500e-11
 Primitive cut-off              TCut     ...  2.500e-12


------------------------------ INTEGRAL EVALUATION ----------------------------


 * One electron integrals 
 Pre-screening matrix                    ... done
 Shell pair data                         ... done (   0.000 sec)



           ************************************************************
           *        Program running with 4 parallel MPI-processes     *
           *              working on a common directory               *
           ************************************************************
-------------------------------------------------------------------------------
                                 ORCA SCF
-------------------------------------------------------------------------------

------------
SCF SETTINGS
------------
Hamiltonian:
 Density Functional     Method          .... DFT(GTOs)
 Exchange Functional    Exchange        .... WB97X-D3
 Correlation Functional Correlation     .... WB97X-D3
 Gradients option       PostSCFGGA      .... off
 Hybrid DFT is turned on
   Fraction HF Exchange ScalHFX         ....  0.195728
   Scaling of DF-GGA-X  ScalDFX         ....  0.000000
   Scaling of DF-GGA-C  ScalDFC         ....  1.000000
   Scaling of DF-LDA-C  ScalLDAC        ....  1.000000
   Perturbative correction              ....  0.000000
   Density functional embedding theory  .... OFF
 Long-range corrected/Screened/Range-Separated Hybrid DFT is turned on
   Amount of maximum screened exact exchange              ....  0.804272
   Range separation parameter mu (erf(mu*r12)/r12)        ....  0.250000


General Settings:
 Integral files         IntName         .... 9_geo_opt
 Hartree-Fock type      HFTyp           .... RHF
 Total Charge           Charge          ....    0
 Multiplicity           Mult            ....    1
 Number of Electrons    NEL             ....   18
 Basis Dimension        Dim             ....   86
 Nuclear Repulsion      ENuc            ....     40.4429308288 Eh

Convergence Acceleration:
 DIIS                   CNVDIIS         .... on
   Start iteration      DIISMaxIt       ....    12
   Startup error        DIISStart       ....  0.200000
   # of expansion vecs  DIISMaxEq       ....     5
   Bias factor          DIISBfac        ....   1.050
   Max. coefficient     DIISMaxC        ....  10.000
 Newton-Raphson         CNVNR           .... off
 SOSCF                  CNVSOSCF        .... on
   Start iteration      SOSCFMaxIt      ....   150
   Startup grad/error   SOSCFStart      ....  0.003300
 Level Shifting         CNVShift        .... on
   Level shift para.    LevelShift      ....    0.2500
   Turn off err/grad.   ShiftErr        ....    0.0010
 Zerner damping         CNVZerner       .... off
 Static damping         CNVDamp         .... on
   Fraction old density DampFac         ....    0.7000
   Max. Damping (<1)    DampMax         ....    0.9800
   Min. Damping (>=0)   DampMin         ....    0.0000
   Turn off err/grad.   DampErr         ....    0.1000
 Fernandez-Rico         CNVRico         .... off

SCF Procedure:
 Maximum # iterations   MaxIter         ....   125
 SCF integral mode      SCFMode         .... Direct
   Integral package                     .... LIBINT
 Reset frequency        DirectResetFreq ....    20
 Integral Threshold     Thresh          ....  2.500e-11 Eh
 Primitive CutOff       TCut            ....  2.500e-12 Eh

Convergence Tolerance:
 Convergence Check Mode ConvCheckMode   .... Total+1el-Energy
 Convergence forced     ConvForced      .... 0
 Energy Change          TolE            ....  1.000e-08 Eh
 1-El. energy change                    ....  1.000e-05 Eh
 Orbital Gradient       TolG            ....  1.000e-05
 Orbital Rotation angle TolX            ....  1.000e-05
 DIIS Error             TolErr          ....  5.000e-07


Diagonalization of the overlap matrix:
Smallest eigenvalue                        ... 1.650e-03
Time for diagonalization                   ...    0.002 sec
Threshold for overlap eigenvalues          ... 1.000e-08
Number of eigenvalues below threshold      ... 0
Time for construction of square roots      ...    0.003 sec
Total time needed                          ...    0.005 sec

---------------------
INITIAL GUESS: MOREAD
---------------------
Guess MOs are being read from file: 9_geo_opt.gbw
Input Geometry matches current geometry (good)
Input basis set matches current basis set (good)
MOs were renormalized
MOs were reorthogonalized (Cholesky)
                      ------------------
                      INITIAL GUESS DONE (   0.0 sec)
                      ------------------
-------------------
DFT GRID GENERATION
-------------------

General Integration Accuracy     IntAcc      ...  5.010
Radial Grid Type                 RadialGrid  ... Gauss-Chebyshev
Angular Grid (max. acc.)         AngularGrid ... Lebedev-434
Angular grid pruning method      GridPruning ... 3 (G Style)
Weight generation scheme         WeightScheme... Becke
Basis function cutoff            BFCut       ...    1.0000e-11
Integration weight cutoff        WCut        ...    1.0000e-14
Grids for H and He will be reduced by one unit

# of grid points (after initial pruning)     ...  48308 (   0.0 sec)
# of grid points (after weights+screening)   ...  46677 (   0.0 sec)
nearest neighbour list constructed           ...    0.0 sec
Grid point re-assignment to atoms done       ...    0.0 sec
Grid point division into batches done        ...    0.3 sec
Reduced shell lists constructed in    0.3 sec

Total number of grid points                  ...    46677
Total number of batches                      ...      733
Average number of points per batch           ...       63
Average number of grid points per atom       ...     7780
Average number of shells per batch           ...    33.14 (87.20%)
Average number of basis functions per batch  ...    76.84 (89.35%)
Average number of large shells per batch     ...    30.59 (92.33%)
Average number of large basis fcns per batch ...    72.26 (94.03%)
Maximum spatial batch extension              ...  15.77, 14.99, 16.58 au
Average spatial batch extension              ...   0.40,  0.41,  0.42 au

Time for grid setup =    0.377 sec

--------------
SCF ITERATIONS
--------------
ITER       Energy         Delta-E        Max-DP      RMS-DP      [F,P]     Damp
               ***  Starting incremental Fock matrix formation  ***
                      *** Initiating the SOSCF procedure ***
                      *** Re-Reading the Fockian *** 
                      *** Removing any level shift *** 
ITER      Energy       Delta-E        Grad      Rot      Max-DP    RMS-DP
  0   -115.73770397 -115.7377039712  0.000010  0.000010  0.000012  0.000001
               *** Restarting incremental Fock matrix formation ***
  1   -115.73770397  -0.0000000031  0.000005  0.000005  0.000005  0.000000
  2   -115.73770397  -0.0000000004  0.000003  0.000003  0.000003  0.000000
                  ***Gradient check signals convergence***
              ***Rediagonalizing the Fockian in SOSCF/NRSCF***

               *****************************************************
               *                     SUCCESS                       *
               *           SCF CONVERGED AFTER   3 CYCLES          *
               *****************************************************

Setting up the final grid:

General Integration Accuracy     IntAcc      ...  5.340
Radial Grid Type                 RadialGrid  ... Gauss-Chebyshev
Angular Grid (max. acc.)         AngularGrid ... Lebedev-590
Angular grid pruning method      GridPruning ... 3 (G Style)
Weight generation scheme         WeightScheme... Becke
Basis function cutoff            BFCut       ...    1.0000e-11
Integration weight cutoff        WCut        ...    1.0000e-14
Grids for H and He will be reduced by one unit

# of grid points (after initial pruning)     ...  77324 (   0.0 sec)
# of grid points (after weights+screening)   ...  74512 (   0.0 sec)
nearest neighbour list constructed           ...    0.0 sec
Grid point re-assignment to atoms done       ...    0.0 sec
Grid point division into batches done        ...    0.8 sec
Reduced shell lists constructed in    0.8 sec

Total number of grid points                  ...    74512
Total number of batches                      ...     1167
Average number of points per batch           ...       63
Average number of grid points per atom       ...    12419
Average number of shells per batch           ...    32.94 (86.67%)
Average number of basis functions per batch  ...    76.38 (88.81%)
Average number of large shells per batch     ...    30.32 (92.06%)
Average number of large basis fcns per batch ...    71.54 (93.66%)
Maximum spatial batch extension              ...  13.18, 14.25, 15.48 au
Average spatial batch extension              ...   0.34,  0.36,  0.37 au

Final grid set up in    0.9 sec
Final integration                            ... done (   0.2 sec)
Change in XC energy                          ...    -0.000107604
Integrated number of electrons               ...    18.000000745
Previous integrated no of electrons          ...    18.000002269

----------------
TOTAL SCF ENERGY
----------------

Total Energy       :         -115.73781158 Eh           -3149.38596 eV

Components:
Nuclear Repulsion  :           40.44293083 Eh            1100.50810 eV
Electronic Energy  :         -156.18074241 Eh           -4249.89406 eV
One Electron Energy:         -237.30416134 Eh           -6457.37452 eV
Two Electron Energy:           81.12341893 Eh            2207.48046 eV

Virial components:
Potential Energy   :         -230.98998003 Eh           -6285.55691 eV
Kinetic Energy     :          115.25216845 Eh            3136.17094 eV
Virial Ratio       :            2.00421374


DFT components:
N(Alpha)           :        9.000000372490 electrons
N(Beta)            :        9.000000372490 electrons
N(Total)           :       18.000000744981 electrons
E(XC)              :      -10.655939026526 Eh       
DFET-embed. en.    :        0.000000000000 Eh       

---------------
SCF CONVERGENCE
---------------

  Last Energy change         ...   -3.9250e-11  Tolerance :   1.0000e-08
  Last MAX-Density change    ...    1.1284e-06  Tolerance :   1.0000e-07
  Last RMS-Density change    ...    7.1667e-08  Tolerance :   5.0000e-09
  Last Orbital Gradient      ...    1.0862e-06  Tolerance :   1.0000e-05
  Last Orbital Rotation      ...    8.9209e-07  Tolerance :   1.0000e-05

             **** THE GBW FILE WAS UPDATED (9_geo_opt.gbw) ****
             **** DENSITY FILE WAS UPDATED (9_geo_opt.scfp.tmp) ****
             **** ENERGY FILE WAS UPDATED (9_geo_opt.en.tmp) ****
----------------
ORBITAL ENERGIES
----------------

  NO   OCC          E(Eh)            E(eV) 
   0   2.0000     -19.228008      -523.2207 
   1   2.0000     -10.315118      -280.6886 
   2   2.0000      -1.136962       -30.9383 
   3   2.0000      -0.795424       -21.6446 
   4   2.0000      -0.611689       -16.6449 
   5   2.0000      -0.541784       -14.7427 
   6   2.0000      -0.526365       -14.3231 
   7   2.0000      -0.433817       -11.8048 
   8   2.0000      -0.373629       -10.1670 
   9   0.0000       0.116729         3.1764 
  10   0.0000       0.156709         4.2643 
  11   0.0000       0.202586         5.5126 
  12   0.0000       0.205113         5.5814 
  13   0.0000       0.226399         6.1606 
  14   0.0000       0.304339         8.2815 
  15   0.0000       0.313355         8.5268 
  16   0.0000       0.404527        11.0077 
  17   0.0000       0.452658        12.3175 
  18   0.0000       0.485222        13.2036 
  19   0.0000       0.535837        14.5809 
  20   0.0000       0.543666        14.7939 
  21   0.0000       0.567718        15.4484 
  22   0.0000       0.598572        16.2880 
  23   0.0000       0.603521        16.4226 
  24   0.0000       0.671447        18.2710 
  25   0.0000       0.779010        21.1979 
  26   0.0000       0.832206        22.6455 
  27   0.0000       0.861294        23.4370 
  28   0.0000       0.989582        26.9279 
  29   0.0000       1.013927        27.5904 
  30   0.0000       1.109772        30.1984 
  31   0.0000       1.382776        37.6272 
  32   0.0000       1.512952        41.1695 
  33   0.0000       1.553628        42.2764 
  34   0.0000       1.602859        43.6160 
  35   0.0000       1.613090        43.8944 
  36   0.0000       1.624176        44.1961 
  37   0.0000       1.660084        45.1732 
  38   0.0000       1.687987        45.9325 
  39   0.0000       1.774518        48.2871 
  40   0.0000       1.952172        53.1213 
  41   0.0000       2.030785        55.2605 
  42   0.0000       2.055243        55.9260 
  43   0.0000       2.094196        56.9860 
  44   0.0000       2.114701        57.5440 
  45   0.0000       2.268811        61.7375 
  46   0.0000       2.333437        63.4960 
  47   0.0000       2.345598        63.8270 
  48   0.0000       2.381162        64.7947 
  49   0.0000       2.429569        66.1119 
  50   0.0000       2.497662        67.9648 
  51   0.0000       2.596467        70.6535 
  52   0.0000       2.639930        71.8361 
  53   0.0000       2.707945        73.6869 
  54   0.0000       2.842395        77.3455 
  55   0.0000       2.871396        78.1347 
  56   0.0000       2.888558        78.6017 
  57   0.0000       2.992935        81.4419 
  58   0.0000       3.096080        84.2486 
  59   0.0000       3.173178        86.3466 
  60   0.0000       3.299208        89.7760 
  61   0.0000       3.408288        92.7442 
  62   0.0000       3.442174        93.6663 
  63   0.0000       3.488308        94.9217 
  64   0.0000       3.612610        98.3041 
  65   0.0000       3.645297        99.1936 
  66   0.0000       3.667091        99.7866 
  67   0.0000       4.006490       109.0221 
  68   0.0000       4.223801       114.9355 
  69   0.0000       4.273466       116.2869 
  70   0.0000       4.455737       121.2468 
  71   0.0000       4.564466       124.2054 
  72   0.0000       5.346107       145.4750 
  73   0.0000       5.425509       147.6356 
  74   0.0000       5.554979       151.1587 
  75   0.0000       5.826165       158.5380 
  76   0.0000       5.834386       158.7617 
  77   0.0000       5.985990       162.8871 
  78   0.0000       6.381961       173.6620 
  79   0.0000       6.531044       177.7187 
  80   0.0000       6.745334       183.5499 
  81   0.0000       6.804052       185.1477 
  82   0.0000       7.039466       191.5536 
  83   0.0000       7.216735       196.3773 
  84   0.0000      22.406228       609.7045 
  85   0.0000      43.664068      1188.1597 

                    ********************************
                    * MULLIKEN POPULATION ANALYSIS *
                    ********************************

-----------------------
MULLIKEN ATOMIC CHARGES
-----------------------
   0 C :   -0.150853
   1 O :   -0.477542
   2 H :    0.312914
   3 H :    0.098623
   4 H :    0.118231
   5 H :    0.098627
Sum of atomic charges:    0.0000000

--------------------------------
MULLIKEN REDUCED ORBITAL CHARGES
--------------------------------
  0 C s       :     3.223082  s :     3.223082
      pz      :     1.047268  p :     2.826107
      px      :     0.702190
      py      :     1.076650
      dz2     :     0.011107  d :     0.094243
      dxz     :     0.032495
      dyz     :     0.002644
      dx2y2   :     0.012737
      dxy     :     0.035259
      f0      :     0.001356  f :     0.007421
      f+1     :     0.000956
      f-1     :     0.000175
      f+2     :     0.001464
      f-2     :     0.000123
      f+3     :     0.001361
      f-3     :     0.001986
  1 O s       :     3.792565  s :     3.792565
      pz      :     1.759453  p :     4.652715
      px      :     1.313631
      py      :     1.579631
      dz2     :     0.003137  d :     0.030575
      dxz     :     0.006477
      dyz     :     0.005835
      dx2y2   :     0.008935
      dxy     :     0.006192
      f0      :     0.000270  f :     0.001687
      f+1     :     0.000233
      f-1     :     0.000087
      f+2     :     0.000288
      f-2     :     0.000235
      f+3     :     0.000368
      f-3     :     0.000206
  2 H s       :     0.639294  s :     0.639294
      pz      :     0.017044  p :     0.047792
      px      :     0.012748
      py      :     0.018001
  3 H s       :     0.882012  s :     0.882012
      pz      :     0.012072  p :     0.019365
      px      :     0.003007
      py      :     0.004286
  4 H s       :     0.861549  s :     0.861549
      pz      :     0.006297  p :     0.020220
      px      :     0.004194
      py      :     0.009728
  5 H s       :     0.882009  s :     0.882009
      pz      :     0.004929  p :     0.019364
      px      :     0.004977
      py      :     0.009458


                     *******************************
                     * LOEWDIN POPULATION ANALYSIS *
                     *******************************

----------------------
LOEWDIN ATOMIC CHARGES
----------------------
   0 C :   -0.385097
   1 O :   -0.075688
   2 H :    0.165289
   3 H :    0.093403
   4 H :    0.108691
   5 H :    0.093402

-------------------------------
LOEWDIN REDUCED ORBITAL CHARGES
-------------------------------
  0 C s       :     2.862907  s :     2.862907
      pz      :     1.096640  p :     3.052225
      px      :     0.846037
      py      :     1.109548
      dz2     :     0.072406  d :     0.412939
      dxz     :     0.114046
      dyz     :     0.020702
      dx2y2   :     0.082130
      dxy     :     0.123656
      f0      :     0.007823  f :     0.057026
      f+1     :     0.007162
      f-1     :     0.000855
      f+2     :     0.012526
      f-2     :     0.004831
      f+3     :     0.011735
      f-3     :     0.012094
  1 O s       :     3.365809  s :     3.365809
      pz      :     1.699035  p :     4.633648
      px      :     1.381126
      py      :     1.553488
      dz2     :     0.006131  d :     0.071583
      dxz     :     0.017866
      dyz     :     0.008091
      dx2y2   :     0.019345
      dxy     :     0.020150
      f0      :     0.000484  f :     0.004649
      f+1     :     0.000622
      f-1     :     0.000072
      f+2     :     0.001052
      f-2     :     0.000561
      f+3     :     0.000891
      f-3     :     0.000966
  2 H s       :     0.675260  s :     0.675260
      pz      :     0.055896  p :     0.159451
      px      :     0.034004
      py      :     0.069551
  3 H s       :     0.846772  s :     0.846772
      pz      :     0.036182  p :     0.059824
      px      :     0.009713
      py      :     0.013929
  4 H s       :     0.831712  s :     0.831712
      pz      :     0.019211  p :     0.059597
      px      :     0.011610
      py      :     0.028775
  5 H s       :     0.846774  s :     0.846774
      pz      :     0.015605  p :     0.059824
      px      :     0.015203
      py      :     0.029017


                      *****************************
                      * MAYER POPULATION ANALYSIS *
                      *****************************

  NA   - Mulliken gross atomic population
  ZA   - Total nuclear charge
  QA   - Mulliken gross atomic charge
  VA   - Mayer's total valence
  BVA  - Mayer's bonded valence
  FA   - Mayer's free valence

  ATOM       NA         ZA         QA         VA         BVA        FA
  0 C      6.1509     6.0000    -0.1509     3.9349     3.9349     0.0000
  1 O      8.4775     8.0000    -0.4775     1.8882     1.8882     0.0000
  2 H      0.6871     1.0000     0.3129     0.9137     0.9137     0.0000
  3 H      0.9014     1.0000     0.0986     0.9596     0.9596    -0.0000
  4 H      0.8818     1.0000     0.1182     0.9598     0.9598     0.0000
  5 H      0.9014     1.0000     0.0986     0.9596     0.9596     0.0000

  Mayer bond orders larger than 0.1
B(  0-C ,  1-O ) :   0.9986 B(  0-C ,  3-H ) :   0.9755 B(  0-C ,  4-H ) :   0.9750 
B(  0-C ,  5-H ) :   0.9755 B(  1-O ,  2-H ) :   0.9004 

-------
TIMINGS
-------

Total SCF time: 0 days 0 hours 0 min 4 sec 

Total time                  ....       4.018 sec
Sum of individual times     ....       3.728 sec  ( 92.8%)

Fock matrix formation       ....       2.430 sec  ( 60.5%)
  XC integration            ....       0.759 sec  ( 31.2% of F)
    Basis function eval.    ....       0.167 sec  ( 22.0% of XC)
    Density eval.           ....       0.103 sec  ( 13.6% of XC)
    XC-Functional eval.     ....       0.270 sec  ( 35.6% of XC)
    XC-Potential eval.      ....       0.101 sec  ( 13.3% of XC)
Diagonalization             ....       0.006 sec  (  0.1%)
Density matrix formation    ....       0.003 sec  (  0.1%)
Population analysis         ....       0.014 sec  (  0.3%)
Initial guess               ....       0.003 sec  (  0.1%)
Orbital Transformation      ....       0.000 sec  (  0.0%)
Orbital Orthonormalization  ....       0.001 sec  (  0.0%)
DIIS solution               ....       0.000 sec  (  0.0%)
SOSCF solution              ....       0.006 sec  (  0.1%)
Grid generation             ....       1.267 sec  ( 31.5%)


-------------------------------------------------------------------------------
                          DFT DISPERSION CORRECTION                            
                                                                               
                              DFTD3 V3.1  Rev 1                                
                              USING zero damping                               
-------------------------------------------------------------------------------
The omegaB97X-D3 functional is recognized. Fit by Chai et al.
Active option DFTDOPT                   ...         3   

molecular C6(AA) [au] = 208.714874 


            DFT-D V3
 parameters
 s6 scaling factor         :     1.0000 
 rs6 scaling factor        :     1.2810 
 s8 scaling factor         :     1.0000 
 rs8 scaling factor        :     1.0940 
 Damping factor alpha6     :    14.0000 
 Damping factor alpha8     :    16.0000 
 ad hoc parameters k1-k3   :    16.0000     1.3333    -4.0000 

 Edisp/kcal,au: -0.150093801888  -0.000239189673 
 E6   /kcal   :  -0.029582211 
 E8   /kcal   :  -0.120511591 
 % E8         :  80.290851366 

-------------------------   ----------------
Dispersion correction           -0.000239190
-------------------------   ----------------


-------------------------   --------------------
FINAL SINGLE POINT ENERGY      -115.738050767854
-------------------------   --------------------

                                *** OPTIMIZATION RUN DONE ***

                            ***************************************
                            *     ORCA property calculations      *
                            ***************************************

                                    ---------------------
                                    Active property flags
                                    ---------------------
   (+) Dipole Moment


------------------------------------------------------------------------------
                       ORCA ELECTRIC PROPERTIES CALCULATION
------------------------------------------------------------------------------

Dipole Moment Calculation                       ... on
Quadrupole Moment Calculation                   ... off
Polarizability Calculation                      ... off
GBWName                                         ... 9_geo_opt.gbw
Electron density file                           ... 9_geo_opt.scfp.tmp
The origin for moment calculation is the CENTER OF MASS  = ( 7.033600, -2.139485  1.368932)

-------------
DIPOLE MOMENT
-------------
                                X             Y             Z
Electronic contribution:      1.75615      -0.02790       0.41959
Nuclear contribution   :     -2.06605       0.47530      -0.81711
                        -----------------------------------------
Total Dipole Moment    :     -0.30990       0.44740      -0.39752
                        -----------------------------------------
Magnitude (a.u.)       :      0.67397
Magnitude (Debye)      :      1.71309



--------------------
Rotational spectrum 
--------------------
 
Rotational constants in cm-1:     4.294405     0.833841     0.804998 
Rotational constants in MHz : 128743.013447 24997.935591 24133.235135 

 Dipole components along the rotational axes: 
x,y,z [a.u.] :    -0.332987     0.585965    -0.000004 
x,y,z [Debye]:    -0.846385     1.489404    -0.000011 

 
------------------------------------------------------------------------------
                      ORCA CHELPG CHARGES GENERATION
------------------------------------------------------------------------------

GBW file                           ... 9_geo_opt.gbw

Reading the GBW file               ... done

Grid spacing                       ...     0.300000
Point Cut-Off                      ...     2.800000
Van-der-Waals Radii                ...        COSMO
Total charge                       ...            0


Number of points X direction       ...           26
Number of points Y direction       ...           24
Number of points Z direction       ...           24
Maximum number of possible points  ...        14976
Final number of points             ...         5948


CHELPG Charges            
--------------------------------
  0   C   :       0.093847
  1   O   :      -0.607139
  2   H   :       0.404067
  3   H   :       0.014334
  4   H   :       0.081018
  5   H   :       0.013873
--------------------------------
Total charge:    -0.000000
--------------------------------

CHELPG charges calculated...

Timings for individual parts in CHELPG calculation:
Grid generation                 ...        0.002 sec (=   0.000 min)
Potential calculation           ...        0.682 sec (=   0.011 min)
Fit to the potential            ...        0.005 sec (=   0.000 min)
------------------------------------------------------------------------------


Timings for individual modules:

Sum of individual times         ...       32.901 sec (=   0.548 min)
GTO integral calculation        ...        6.670 sec (=   0.111 min)  20.3 %
SCF iterations                  ...       16.991 sec (=   0.283 min)  51.6 %
SCF Gradient evaluation         ...        3.148 sec (=   0.052 min)   9.6 %
Geometry relaxation             ...        2.513 sec (=   0.042 min)   7.6 %
CHELPG charge generation        ...        3.578 sec (=   0.060 min)  10.9 %
                             ****ORCA TERMINATED NORMALLY****
TOTAL RUN TIME: 0 days 0 hours 0 minutes 38 seconds 687 msec
