
                                 *****************
                                 * O   R   C   A *
                                 *****************

           --- An Ab Initio, DFT and Semiempirical electronic structure package ---

                  #######################################################
                  #                        -***-                        #
                  #          Department of theory and spectroscopy      #
                  #               Directorship: Frank Neese             #
                  #        Max Planck Institute fuer Kohlenforschung    #
                  #                Kaiser Wilhelm Platz 1               #
                  #                 D-45470 Muelheim/Ruhr               #
                  #                      Germany                        #
                  #                                                     #
                  #                  All rights reserved                #
                  #                        -***-                        #
                  #######################################################


                         Program Version 4.1.2  - RELEASE  -


 With contributions from (in alphabetic order):
   Daniel Aravena         : Magnetic Properties
   Michael Atanasov       : Ab Initio Ligand Field Theory
   Alexander A. Auer      : GIAO ZORA
   Ute Becker             : Parallelization
   Giovanni Bistoni       : ED, Open-shell LED
   Martin Brehm           : Molecular dynamics
   Dmytro Bykov           : SCF Hessian
   Vijay G. Chilkuri      : MRCI spin determinant printing
   Dipayan Datta          : RHF DLPNO-CCSD density
   Achintya Kumar Dutta   : EOM-CC, STEOM-CC
   Dmitry Ganyushin       : Spin-Orbit,Spin-Spin,Magnetic field MRCI
   Miquel Garcia          : C-PCM Hessian
   Yang Guo               : DLPNO-NEVPT2, CIM, IAO-localization
   Andreas Hansen         : Spin unrestricted coupled pair/coupled cluster methods
   Benjamin Helmich-Paris : CASSCF linear response (MC-RPA)
   Lee Huntington         : MR-EOM, pCC
   Robert Izsak           : Overlap fitted RIJCOSX, COSX-SCS-MP3, EOM
   Christian Kollmar      : KDIIS, OOCD, Brueckner-CCSD(T), CCSD density
   Simone Kossmann        : Meta GGA functionals, TD-DFT gradient, OOMP2, MP2 Hessian
   Martin Krupicka        : AUTO-CI
   Lucas Lang             : DCDCAS
   Dagmar Lenk            : GEPOL surface, SMD
   Dimitrios Liakos       : Extrapolation schemes; parallel MDCI
   Dimitrios Manganas     : ROCIS; embedding schemes
   Dimitrios Pantazis     : SARC Basis sets
   Taras Petrenko         : DFT Hessian,TD-DFT gradient, ASA, ECA, R-Raman, ABS, FL, XAS/XES, NRVS
   Peter Pinski           : DLPNO-MP2, DLPNO-MP2 Gradient
   Christoph Reimann      : Effective Core Potentials
   Marius Retegan         : Local ZFS, SOC
   Christoph Riplinger    : Optimizer, TS searches, QM/MM, DLPNO-CCSD(T), (RO)-DLPNO pert. Triples
   Tobias Risthaus        : Range-separated hybrids, TD-DFT gradient, RPA, STAB
   Michael Roemelt        : Restricted open shell CIS
   Masaaki Saitow         : Open-shell DLPNO
   Barbara Sandhoefer     : DKH picture change effects
   Avijit Sen             : IP-ROCIS
   Kantharuban Sivalingam : CASSCF convergence, NEVPT2, FIC-MRCI
   Bernardo de Souza      : ESD, SOC TD-DFT
   Georgi Stoychev        : AutoAux, RI-MP2 NMR
   Willem Van den Heuvel  : Paramagnetic NMR
   Boris Wezisla          : Elementary symmetry handling
   Frank Wennmohs         : Technical directorship


 We gratefully acknowledge several colleagues who have allowed us to
 interface, adapt or use parts of their codes:
   Stefan Grimme, W. Hujo, H. Kruse,             : VdW corrections, initial TS optimization,
                  C. Bannwarth                     DFT functionals, gCP, sTDA/sTD-DF
   Ed Valeev                                     : LibInt (2-el integral package), F12 methods
   Garnet Chan, S. Sharma, J. Yang, R. Olivares  : DMRG
   Ulf Ekstrom                                   : XCFun DFT Library
   Mihaly Kallay                                 : mrcc  (arbitrary order and MRCC methods)
   Andreas Klamt, Michael Diedenhofen            : otool_cosmo (COSMO solvation model)
   Jiri Pittner, Ondrej Demel                    : Mk-CCSD
   Frank Weinhold                                : gennbo (NPA and NBO analysis)
   Christopher J. Cramer and Donald G. Truhlar   : smd solvation model
   Lars Goerigk                                  : TD-DFT with DH, B97 family of functionals
   V. Asgeirsson, H. Jonsson                     : NEB implementation
   FAccTs GmbH                                   : IRC, NEB, NEB-TS, Multilevel


 Your calculation uses the libint2 library for the computation of 2-el integrals
 For citations please refer to: http://libint.valeyev.net

 This ORCA versions uses:
   CBLAS   interface :  Fast vector & matrix operations
   LAPACKE interface :  Fast linear algebra routines
   SCALAPACK package :  Parallel linear algebra routines


Your calculation utilizes the atom-pairwise dispersion correction
with the zero-damping scheme (D30)
Cite in your paper:
S.Grimme, J.Antony, S.Ehrlich and H.Krieg, J.Chem.Phys., 132, (2010), 154104 
   

XCFun DFT library Copyright 2009-2010 Ulf Ekstrom and contributors.
See http://admol.org/xcfun for more information. This is free soft-
ware; see the source code for copying conditions. There is ABSOLUTELY
NO WARRANTY; not even for MERCHANTABILITY or FITNESS FOR A PARTICULAR
PURPOSE. For details see the documentation. Scientific users of this 
library should cite U. Ekstrom, L. Visscher, R. Bast, A. J. Thorvald-
sen and K. Ruud; J.Chem.Theor.Comp. 2010, DOI: 10.1021/ct100117s
XCFun Version 0.99 
----- Orbital basis set information -----
Your calculation utilizes the basis: def2-TZVP
   F. Weigend and R. Ahlrichs, Phys. Chem. Chem. Phys. 7, 3297 (2005).

================================================================================
                                        WARNINGS
                       Please study these warnings very carefully!
================================================================================


WARNING: Geometry Optimization
  ===> : Switching off AutoStart
         For restart on a previous wavefunction, please use MOREAD

INFO   : the flag for use of LIBINT has been found!

================================================================================
                                       INPUT FILE
================================================================================
NAME = bonds_angles_[6[8[1]][1][1][1]]-[8[6[1][1][1]][1]]_10.in
|  1> #Run DFT geometry optimization
|  2> ! wB97X-D3 def2-TZVP TIGHTSCF Grid5 FinalGrid6 Opt CHELPG PAL4
|  3> 
|  4> %base "10_geo_opt"
|  5> %geom MaxIter 500
|  6> end
|  7> 
|  8> %geom
|  9>   Constraints
| 10>     { B 0 1 C }
| 11>   end
| 12> end
| 13> 
| 14> 
| 15> * xyz 0 1
| 16>   C                    3.011798             -1.180878            0.598590            
| 17>   O                    4.394183             -1.128069            0.874210            
| 18>   H                    4.771706             -0.379041            0.412395            
| 19>   H                    2.806924             -1.318946            -0.469252           
| 20>   H                    2.612122             -2.040246            1.135996            
| 21>   H                    2.485247             -0.284472            0.945757            
| 22> *
| 23> 
| 24>                          ****END OF INPUT****
================================================================================

                       *****************************
                       * Geometry Optimization Run *
                       *****************************

Geometry optimization settings:
Update method            Update   .... BFGS
Choice of coordinates    CoordSys .... Z-matrix Internals
Initial Hessian          InHess   .... Almoef's Model

Convergence Tolerances:
Energy Change            TolE     ....  5.0000e-06 Eh
Max. Gradient            TolMAXG  ....  3.0000e-04 Eh/bohr
RMS Gradient             TolRMSG  ....  1.0000e-04 Eh/bohr
Max. Displacement        TolMAXD  ....  4.0000e-03 bohr
RMS Displacement         TolRMSD  ....  2.0000e-03 bohr

------------------------------------------------------------------------------
                        ORCA OPTIMIZATION COORDINATE SETUP
------------------------------------------------------------------------------

The optimization will be done in new redundant internal coordinates
Making redundant internal coordinates   ...  (new redundants) done
Evaluating the initial hessian          ...  (Almloef) done
Evaluating the coordinates              ...  done
Calculating the B-matrix                .... done
Calculating the G-matrix                .... done
Diagonalizing the G-matrix              .... done
Imposing constraints:
 Iter   0:  RMS(Cart)=    0.0000000000 RMS(Int)=    0.0000000000
CONVERGED
The first mode is                       ....    3
The number of degrees of freedom        ....   12
Storing new coordinates                 .... done

    -----------------------------------------------------------------
                    Redundant Internal Coordinates


    -----------------------------------------------------------------
         Definition                    Initial Value    Approx d2E/dq
    -----------------------------------------------------------------
      1. B(O   1,C   0)                  1.4106         0.518844 C 
      2. B(H   2,O   1)                  0.9575         0.524720   
      3. B(H   3,C   0)                  1.0960         0.352187   
      4. B(H   4,C   0)                  1.0895         0.360732   
      5. B(H   5,C   0)                  1.0960         0.352185   
      6. A(O   1,C   0,H   4)          107.0169         0.340495   
      7. A(O   1,C   0,H   3)          112.2263         0.339134   
      8. A(O   1,C   0,H   5)          112.2282         0.339134   
      9. A(H   3,C   0,H   5)          108.7729         0.288819   
     10. A(H   4,C   0,H   5)          108.2173         0.289906   
     11. A(H   3,C   0,H   4)          108.2176         0.289907   
     12. A(C   0,O   1,H   2)          108.7499         0.359566   
     13. D(H   2,O   1,C   0,H   5)    -61.4304         0.021339   
     14. D(H   2,O   1,C   0,H   3)     61.4271         0.021339   
     15. D(H   2,O   1,C   0,H   4)    179.9980         0.021339   
    -----------------------------------------------------------------

Number of atoms                         .... 6
Number of degrees of freedom            .... 15

         *************************************************************
         *                GEOMETRY OPTIMIZATION CYCLE   1            *
         *************************************************************
---------------------------------
CARTESIAN COORDINATES (ANGSTROEM)
---------------------------------
  C      3.011798   -1.180878    0.598590
  O      4.394183   -1.128069    0.874210
  H      4.771706   -0.379041    0.412395
  H      2.806924   -1.318946   -0.469252
  H      2.612122   -2.040246    1.135996
  H      2.485247   -0.284472    0.945757

----------------------------
CARTESIAN COORDINATES (A.U.)
----------------------------
  NO LB      ZA    FRAG     MASS         X           Y           Z
   0 C     6.0000    0    12.011    5.691473   -2.231536    1.131171
   1 O     8.0000    0    15.999    8.303802   -2.131741    1.652017
   2 H     1.0000    0     1.008    9.017218   -0.716284    0.779314
   3 H     1.0000    0     1.008    5.304318   -2.492447   -0.886758
   4 H     1.0000    0     1.008    4.936195   -3.855506    2.146721
   5 H     1.0000    0     1.008    4.696436   -0.537574    1.787222

--------------------------------
INTERNAL COORDINATES (ANGSTROEM)
--------------------------------
 C      0   0   0     0.000000000000     0.00000000     0.00000000
 O      1   0   0     1.410582667945     0.00000000     0.00000000
 H      2   1   0     0.957517443464   108.74988683     0.00000000
 H      1   2   3     1.096048660172   112.22631270    61.42710307
 H      1   2   3     1.089522589594   107.01691069   179.99802466
 H      1   2   3     1.096049541912   112.22818113   298.56955945

---------------------------
INTERNAL COORDINATES (A.U.)
---------------------------
 C      0   0   0     0.000000000000     0.00000000     0.00000000
 O      1   0   0     2.665614931671     0.00000000     0.00000000
 H      2   1   0     1.809445736600   108.74988683     0.00000000
 H      1   2   3     2.071231797176   112.22631270    61.42710307
 H      1   2   3     2.058899311054   107.01691069   179.99802466
 H      1   2   3     2.071233463424   112.22818113   298.56955945

---------------------
BASIS SET INFORMATION
---------------------
There are 3 groups of distinct atoms

 Group   1 Type C   : 11s6p2d1f contracted to 5s3p2d1f pattern {62111/411/11/1}
 Group   2 Type O   : 11s6p2d1f contracted to 5s3p2d1f pattern {62111/411/11/1}
 Group   3 Type H   : 5s1p contracted to 3s1p pattern {311/1}

Atom   0C    basis set group =>   1
Atom   1O    basis set group =>   2
Atom   2H    basis set group =>   3
Atom   3H    basis set group =>   3
Atom   4H    basis set group =>   3
Atom   5H    basis set group =>   3


           ************************************************************
           *        Program running with 4 parallel MPI-processes     *
           *              working on a common directory               *
           ************************************************************
------------------------------------------------------------------------------
                           ORCA GTO INTEGRAL CALCULATION
------------------------------------------------------------------------------

                         BASIS SET STATISTICS AND STARTUP INFO

 # of primitive gaussian shells          ...   64
 # of primitive gaussian functions       ...  124
 # of contracted shells                  ...   38
 # of contracted basis functions         ...   86
 Highest angular momentum                ...    3
 Maximum contraction depth               ...    6
 Integral package used                   ... LIBINT
 Integral threshhold            Thresh   ...  2.500e-11
 Primitive cut-off              TCut     ...  2.500e-12


------------------------------ INTEGRAL EVALUATION ----------------------------


 * One electron integrals 
 Pre-screening matrix                    ... done
 Shell pair data                         ... done (   0.000 sec)



           ************************************************************
           *        Program running with 4 parallel MPI-processes     *
           *              working on a common directory               *
           ************************************************************
-------------------------------------------------------------------------------
                                 ORCA SCF
-------------------------------------------------------------------------------

------------
SCF SETTINGS
------------
Hamiltonian:
 Density Functional     Method          .... DFT(GTOs)
 Exchange Functional    Exchange        .... WB97X-D3
 Correlation Functional Correlation     .... WB97X-D3
 Gradients option       PostSCFGGA      .... off
 Hybrid DFT is turned on
   Fraction HF Exchange ScalHFX         ....  0.195728
   Scaling of DF-GGA-X  ScalDFX         ....  0.000000
   Scaling of DF-GGA-C  ScalDFC         ....  1.000000
   Scaling of DF-LDA-C  ScalLDAC        ....  1.000000
   Perturbative correction              ....  0.000000
   Density functional embedding theory  .... OFF
 Long-range corrected/Screened/Range-Separated Hybrid DFT is turned on
   Amount of maximum screened exact exchange              ....  0.804272
   Range separation parameter mu (erf(mu*r12)/r12)        ....  0.250000


General Settings:
 Integral files         IntName         .... 10_geo_opt
 Hartree-Fock type      HFTyp           .... RHF
 Total Charge           Charge          ....    0
 Multiplicity           Mult            ....    1
 Number of Electrons    NEL             ....   18
 Basis Dimension        Dim             ....   86
 Nuclear Repulsion      ENuc            ....     40.4544849702 Eh

Convergence Acceleration:
 DIIS                   CNVDIIS         .... on
   Start iteration      DIISMaxIt       ....    12
   Startup error        DIISStart       ....  0.200000
   # of expansion vecs  DIISMaxEq       ....     5
   Bias factor          DIISBfac        ....   1.050
   Max. coefficient     DIISMaxC        ....  10.000
 Newton-Raphson         CNVNR           .... off
 SOSCF                  CNVSOSCF        .... on
   Start iteration      SOSCFMaxIt      ....   150
   Startup grad/error   SOSCFStart      ....  0.003300
 Level Shifting         CNVShift        .... on
   Level shift para.    LevelShift      ....    0.2500
   Turn off err/grad.   ShiftErr        ....    0.0010
 Zerner damping         CNVZerner       .... off
 Static damping         CNVDamp         .... on
   Fraction old density DampFac         ....    0.7000
   Max. Damping (<1)    DampMax         ....    0.9800
   Min. Damping (>=0)   DampMin         ....    0.0000
   Turn off err/grad.   DampErr         ....    0.1000
 Fernandez-Rico         CNVRico         .... off

SCF Procedure:
 Maximum # iterations   MaxIter         ....   125
 SCF integral mode      SCFMode         .... Direct
   Integral package                     .... LIBINT
 Reset frequency        DirectResetFreq ....    20
 Integral Threshold     Thresh          ....  2.500e-11 Eh
 Primitive CutOff       TCut            ....  2.500e-12 Eh

Convergence Tolerance:
 Convergence Check Mode ConvCheckMode   .... Total+1el-Energy
 Convergence forced     ConvForced      .... 0
 Energy Change          TolE            ....  1.000e-08 Eh
 1-El. energy change                    ....  1.000e-05 Eh
 Orbital Gradient       TolG            ....  1.000e-05
 Orbital Rotation angle TolX            ....  1.000e-05
 DIIS Error             TolErr          ....  5.000e-07


Diagonalization of the overlap matrix:
Smallest eigenvalue                        ... 1.650e-03
Time for diagonalization                   ...    0.274 sec
Threshold for overlap eigenvalues          ... 1.000e-08
Number of eigenvalues below threshold      ... 0
Time for construction of square roots      ...    0.005 sec
Total time needed                          ...    0.280 sec

-------------------
DFT GRID GENERATION
-------------------

General Integration Accuracy     IntAcc      ...  5.010
Radial Grid Type                 RadialGrid  ... Gauss-Chebyshev
Angular Grid (max. acc.)         AngularGrid ... Lebedev-434
Angular grid pruning method      GridPruning ... 3 (G Style)
Weight generation scheme         WeightScheme... Becke
Basis function cutoff            BFCut       ...    1.0000e-11
Integration weight cutoff        WCut        ...    1.0000e-14
Grids for H and He will be reduced by one unit

# of grid points (after initial pruning)     ...  48308 (   0.0 sec)
# of grid points (after weights+screening)   ...  46676 (   0.0 sec)
nearest neighbour list constructed           ...    0.0 sec
Grid point re-assignment to atoms done       ...    0.0 sec
Grid point division into batches done        ...    0.3 sec
Reduced shell lists constructed in    0.3 sec

Total number of grid points                  ...    46676
Total number of batches                      ...      733
Average number of points per batch           ...       63
Average number of grid points per atom       ...     7779
Average number of shells per batch           ...    33.12 (87.16%)
Average number of basis functions per batch  ...    76.78 (89.28%)
Average number of large shells per batch     ...    30.60 (92.39%)
Average number of large basis fcns per batch ...    72.23 (94.07%)
Maximum spatial batch extension              ...  15.77, 14.99, 16.58 au
Average spatial batch extension              ...   0.40,  0.40,  0.43 au

Time for grid setup =    0.447 sec

------------------------------
INITIAL GUESS: MODEL POTENTIAL
------------------------------
Loading Hartree-Fock densities                     ... done
Calculating cut-offs                               ... done
Setting up the integral package                    ... done
Initializing the effective Hamiltonian             ... done
Starting the Coulomb interaction                   ... done (   0.0 sec)
Reading the grid                                   ... done
Mapping shells                                     ... done
Starting the XC term evaluation                    ... done (   0.1 sec)
  promolecular density results
     # of electrons  =     17.998045207
     EX              =    -14.430621186
     EC              =     -0.575171051
     EX+EC           =    -15.005792236
Transforming the Hamiltonian                       ... done (   0.0 sec)
Diagonalizing the Hamiltonian                      ... done (   0.0 sec)
Back transforming the eigenvectors                 ... done (   0.0 sec)
Now organizing SCF variables                       ... done
                      ------------------
                      INITIAL GUESS DONE (   0.6 sec)
                      ------------------
--------------
SCF ITERATIONS
--------------
ITER       Energy         Delta-E        Max-DP      RMS-DP      [F,P]     Damp
               ***  Starting incremental Fock matrix formation  ***
  0   -115.6511259355   0.000000000000 0.03698061  0.00147538  0.2524070 0.7000
  1   -115.6882287945  -0.037102859073 0.02204123  0.00104139  0.1262908 0.7000
                               ***Turning on DIIS***
  2   -115.7053100398  -0.017081245234 0.03158902  0.00188236  0.0491233 0.0000
  3   -115.7330712480  -0.027761208220 0.01774224  0.00068051  0.0611367 0.0000
  4   -115.7376007668  -0.004529518850 0.00406472  0.00013182  0.0065477 0.0000
                      *** Initiating the SOSCF procedure ***
                           *** Shutting down DIIS ***
                      *** Re-Reading the Fockian *** 
                      *** Removing any level shift *** 
ITER      Energy       Delta-E        Grad      Rot      Max-DP    RMS-DP
  5   -115.73769497  -0.0000942063  0.000490  0.000490  0.000679  0.000043
               *** Restarting incremental Fock matrix formation ***
  6   -115.73770312  -0.0000081478  0.000152  0.000202  0.000490  0.000026
  7   -115.73770384  -0.0000007221  0.000056  0.000109  0.000208  0.000011
  8   -115.73770390  -0.0000000574  0.000020  0.000017  0.000030  0.000001
  9   -115.73770391  -0.0000000056  0.000010  0.000008  0.000015  0.000001
 10   -115.73770391  -0.0000000015  0.000003  0.000003  0.000003  0.000000
                  ***Gradient check signals convergence***
              ***Rediagonalizing the Fockian in SOSCF/NRSCF***

               *****************************************************
               *                     SUCCESS                       *
               *           SCF CONVERGED AFTER  11 CYCLES          *
               *****************************************************

Setting up the final grid:

General Integration Accuracy     IntAcc      ...  5.340
Radial Grid Type                 RadialGrid  ... Gauss-Chebyshev
Angular Grid (max. acc.)         AngularGrid ... Lebedev-590
Angular grid pruning method      GridPruning ... 3 (G Style)
Weight generation scheme         WeightScheme... Becke
Basis function cutoff            BFCut       ...    1.0000e-11
Integration weight cutoff        WCut        ...    1.0000e-14
Grids for H and He will be reduced by one unit

# of grid points (after initial pruning)     ...  77324 (   0.0 sec)
# of grid points (after weights+screening)   ...  74512 (   0.0 sec)
nearest neighbour list constructed           ...    0.0 sec
Grid point re-assignment to atoms done       ...    0.0 sec
Grid point division into batches done        ...    0.8 sec
Reduced shell lists constructed in    0.8 sec

Total number of grid points                  ...    74512
Total number of batches                      ...     1167
Average number of points per batch           ...       63
Average number of grid points per atom       ...    12419
Average number of shells per batch           ...    32.92 (86.64%)
Average number of basis functions per batch  ...    76.35 (88.78%)
Average number of large shells per batch     ...    30.31 (92.05%)
Average number of large basis fcns per batch ...    71.52 (93.67%)
Maximum spatial batch extension              ...  13.18, 14.25, 15.48 au
Average spatial batch extension              ...   0.34,  0.36,  0.37 au

Final grid set up in    0.9 sec
Final integration                            ... done (   0.2 sec)
Change in XC energy                          ...    -0.000108026
Integrated number of electrons               ...    18.000000744
Previous integrated no of electrons          ...    18.000002253

----------------
TOTAL SCF ENERGY
----------------

Total Energy       :         -115.73781193 Eh           -3149.38597 eV

Components:
Nuclear Repulsion  :           40.45448497 Eh            1100.82250 eV
Electronic Energy  :         -156.19229690 Eh           -4250.20848 eV
One Electron Energy:         -237.32697284 Eh           -6457.99525 eV
Two Electron Energy:           81.13467593 Eh            2207.78677 eV

Virial components:
Potential Energy   :         -230.99039498 Eh           -6285.56820 eV
Kinetic Energy     :          115.25258305 Eh            3136.18223 eV
Virial Ratio       :            2.00421013


DFT components:
N(Alpha)           :        9.000000371988 electrons
N(Beta)            :        9.000000371988 electrons
N(Total)           :       18.000000743975 electrons
E(XC)              :      -10.656024677138 Eh       
DFET-embed. en.    :        0.000000000000 Eh       

---------------
SCF CONVERGENCE
---------------

  Last Energy change         ...   -5.9387e-11  Tolerance :   1.0000e-08
  Last MAX-Density change    ...    1.8748e-06  Tolerance :   1.0000e-07
  Last RMS-Density change    ...    7.8227e-08  Tolerance :   5.0000e-09
  Last Orbital Gradient      ...    1.3501e-06  Tolerance :   1.0000e-05
  Last Orbital Rotation      ...    7.8129e-07  Tolerance :   1.0000e-05

             **** THE GBW FILE WAS UPDATED (10_geo_opt.gbw) ****
             **** DENSITY FILE WAS UPDATED (10_geo_opt.scfp.tmp) ****
             **** ENERGY FILE WAS UPDATED (10_geo_opt.en.tmp) ****
----------------
ORBITAL ENERGIES
----------------

  NO   OCC          E(Eh)            E(eV) 
   0   2.0000     -19.228084      -523.2228 
   1   2.0000     -10.315021      -280.6860 
   2   2.0000      -1.137119       -30.9426 
   3   2.0000      -0.795300       -21.6412 
   4   2.0000      -0.611778       -16.6473 
   5   2.0000      -0.541889       -14.7455 
   6   2.0000      -0.526453       -14.3255 
   7   2.0000      -0.433722       -11.8022 
   8   2.0000      -0.373558       -10.1650 
   9   0.0000       0.116637         3.1738 
  10   0.0000       0.156760         4.2656 
  11   0.0000       0.202597         5.5130 
  12   0.0000       0.205143         5.5822 
  13   0.0000       0.226466         6.1624 
  14   0.0000       0.304330         8.2812 
  15   0.0000       0.313354         8.5268 
  16   0.0000       0.404919        11.0184 
  17   0.0000       0.452773        12.3206 
  18   0.0000       0.484999        13.1975 
  19   0.0000       0.535823        14.5805 
  20   0.0000       0.543571        14.7913 
  21   0.0000       0.567672        15.4471 
  22   0.0000       0.598634        16.2897 
  23   0.0000       0.603610        16.4251 
  24   0.0000       0.671326        18.2677 
  25   0.0000       0.779133        21.2013 
  26   0.0000       0.832296        22.6479 
  27   0.0000       0.861297        23.4371 
  28   0.0000       0.989530        26.9265 
  29   0.0000       1.013932        27.5905 
  30   0.0000       1.110095        30.2072 
  31   0.0000       1.382663        37.6242 
  32   0.0000       1.512873        41.1674 
  33   0.0000       1.553779        42.2805 
  34   0.0000       1.602914        43.6175 
  35   0.0000       1.613331        43.9010 
  36   0.0000       1.624204        44.1968 
  37   0.0000       1.660126        45.1743 
  38   0.0000       1.688330        45.9418 
  39   0.0000       1.774570        48.2885 
  40   0.0000       1.952052        53.1180 
  41   0.0000       2.030612        55.2558 
  42   0.0000       2.055356        55.9291 
  43   0.0000       2.094329        56.9896 
  44   0.0000       2.114873        57.5486 
  45   0.0000       2.268605        61.7319 
  46   0.0000       2.334075        63.5134 
  47   0.0000       2.345497        63.8242 
  48   0.0000       2.381256        64.7973 
  49   0.0000       2.429558        66.1116 
  50   0.0000       2.497773        67.9678 
  51   0.0000       2.596381        70.6511 
  52   0.0000       2.639903        71.8354 
  53   0.0000       2.707326        73.6701 
  54   0.0000       2.842240        77.3413 
  55   0.0000       2.871740        78.1440 
  56   0.0000       2.888576        78.6021 
  57   0.0000       2.993106        81.4466 
  58   0.0000       3.096310        84.2549 
  59   0.0000       3.173547        86.3566 
  60   0.0000       3.299902        89.7949 
  61   0.0000       3.408361        92.7462 
  62   0.0000       3.442200        93.6670 
  63   0.0000       3.488653        94.9311 
  64   0.0000       3.613908        98.3394 
  65   0.0000       3.645549        99.2004 
  66   0.0000       3.667275        99.7916 
  67   0.0000       4.005799       109.0033 
  68   0.0000       4.223720       114.9333 
  69   0.0000       4.273434       116.2861 
  70   0.0000       4.455528       121.2411 
  71   0.0000       4.564137       124.1965 
  72   0.0000       5.346500       145.4856 
  73   0.0000       5.425911       147.6466 
  74   0.0000       5.554642       151.1495 
  75   0.0000       5.827852       158.5839 
  76   0.0000       5.835168       158.7830 
  77   0.0000       5.987019       162.9151 
  78   0.0000       6.379909       173.6061 
  79   0.0000       6.531120       177.7208 
  80   0.0000       6.745177       183.5456 
  81   0.0000       6.804707       185.1655 
  82   0.0000       7.039378       191.5512 
  83   0.0000       7.216391       196.3680 
  84   0.0000      22.408708       609.7719 
  85   0.0000      43.664772      1188.1788 

                    ********************************
                    * MULLIKEN POPULATION ANALYSIS *
                    ********************************

-----------------------
MULLIKEN ATOMIC CHARGES
-----------------------
   0 C :   -0.150611
   1 O :   -0.477463
   2 H :    0.313039
   3 H :    0.098463
   4 H :    0.118106
   5 H :    0.098466
Sum of atomic charges:    0.0000000

--------------------------------
MULLIKEN REDUCED ORBITAL CHARGES
--------------------------------
  0 C s       :     3.222911  s :     3.222911
      pz      :     1.047161  p :     2.825882
      px      :     0.702153
      py      :     1.076568
      dz2     :     0.011113  d :     0.094380
      dxz     :     0.032556
      dyz     :     0.002645
      dx2y2   :     0.012742
      dxy     :     0.035323
      f0      :     0.001358  f :     0.007438
      f+1     :     0.000959
      f-1     :     0.000175
      f+2     :     0.001468
      f-2     :     0.000123
      f+3     :     0.001362
      f-3     :     0.001992
  1 O s       :     3.792651  s :     3.792651
      pz      :     1.759284  p :     4.652505
      px      :     1.313772
      py      :     1.579449
      dz2     :     0.003140  d :     0.030620
      dxz     :     0.006490
      dyz     :     0.005837
      dx2y2   :     0.008943
      dxy     :     0.006209
      f0      :     0.000270  f :     0.001688
      f+1     :     0.000234
      f-1     :     0.000087
      f+2     :     0.000288
      f-2     :     0.000235
      f+3     :     0.000368
      f-3     :     0.000207
  2 H s       :     0.639276  s :     0.639276
      pz      :     0.017004  p :     0.047685
      px      :     0.012716
      py      :     0.017965
  3 H s       :     0.882173  s :     0.882173
      pz      :     0.012071  p :     0.019364
      px      :     0.003008
      py      :     0.004285
  4 H s       :     0.861674  s :     0.861674
      pz      :     0.006297  p :     0.020220
      px      :     0.004195
      py      :     0.009728
  5 H s       :     0.882170  s :     0.882170
      pz      :     0.004929  p :     0.019364
      px      :     0.004978
      py      :     0.009457


                     *******************************
                     * LOEWDIN POPULATION ANALYSIS *
                     *******************************

----------------------
LOEWDIN ATOMIC CHARGES
----------------------
   0 C :   -0.385902
   1 O :   -0.075371
   2 H :    0.165881
   3 H :    0.093353
   4 H :    0.108688
   5 H :    0.093351

-------------------------------
LOEWDIN REDUCED ORBITAL CHARGES
-------------------------------
  0 C s       :     2.862706  s :     2.862706
      pz      :     1.096492  p :     3.052265
      px      :     0.846383
      py      :     1.109391
      dz2     :     0.072511  d :     0.413723
      dxz     :     0.114314
      dyz     :     0.020713
      dx2y2   :     0.082238
      dxy     :     0.123947
      f0      :     0.007846  f :     0.057207
      f+1     :     0.007183
      f-1     :     0.000857
      f+2     :     0.012571
      f-2     :     0.004840
      f+3     :     0.011760
      f-3     :     0.012150
  1 O s       :     3.365698  s :     3.365698
      pz      :     1.698714  p :     4.633267
      px      :     1.381492
      py      :     1.553061
      dz2     :     0.006146  d :     0.071746
      dxz     :     0.017926
      dyz     :     0.008087
      dx2y2   :     0.019365
      dxy     :     0.020222
      f0      :     0.000484  f :     0.004660
      f+1     :     0.000625
      f-1     :     0.000072
      f+2     :     0.001054
      f-2     :     0.000561
      f+3     :     0.000892
      f-3     :     0.000972
  2 H s       :     0.675070  s :     0.675070
      pz      :     0.055744  p :     0.159048
      px      :     0.033899
      py      :     0.069406
  3 H s       :     0.846834  s :     0.846834
      pz      :     0.036174  p :     0.059813
      px      :     0.009712
      py      :     0.013927
  4 H s       :     0.831732  s :     0.831732
      pz      :     0.019208  p :     0.059580
      px      :     0.011605
      py      :     0.028767
  5 H s       :     0.846836  s :     0.846836
      pz      :     0.015603  p :     0.059813
      px      :     0.015200
      py      :     0.029010


                      *****************************
                      * MAYER POPULATION ANALYSIS *
                      *****************************

  NA   - Mulliken gross atomic population
  ZA   - Total nuclear charge
  QA   - Mulliken gross atomic charge
  VA   - Mayer's total valence
  BVA  - Mayer's bonded valence
  FA   - Mayer's free valence

  ATOM       NA         ZA         QA         VA         BVA        FA
  0 C      6.1506     6.0000    -0.1506     3.9351     3.9351     0.0000
  1 O      8.4775     8.0000    -0.4775     1.8881     1.8881    -0.0000
  2 H      0.6870     1.0000     0.3130     0.9136     0.9136     0.0000
  3 H      0.9015     1.0000     0.0985     0.9596     0.9596     0.0000
  4 H      0.8819     1.0000     0.1181     0.9598     0.9598    -0.0000
  5 H      0.9015     1.0000     0.0985     0.9596     0.9596     0.0000

  Mayer bond orders larger than 0.1
B(  0-C ,  1-O ) :   0.9988 B(  0-C ,  3-H ) :   0.9756 B(  0-C ,  4-H ) :   0.9749 
B(  0-C ,  5-H ) :   0.9756 B(  1-O ,  2-H ) :   0.9002 

-------
TIMINGS
-------

Total SCF time: 0 days 0 hours 0 min 9 sec 

Total time                  ....       9.148 sec
Sum of individual times     ....       8.480 sec  ( 92.7%)

Fock matrix formation       ....       6.854 sec  ( 74.9%)
  XC integration            ....       1.891 sec  ( 27.6% of F)
    Basis function eval.    ....       0.407 sec  ( 21.5% of XC)
    Density eval.           ....       0.263 sec  ( 13.9% of XC)
    XC-Functional eval.     ....       0.665 sec  ( 35.2% of XC)
    XC-Potential eval.      ....       0.269 sec  ( 14.2% of XC)
Diagonalization             ....       0.031 sec  (  0.3%)
Density matrix formation    ....       0.002 sec  (  0.0%)
Population analysis         ....       0.036 sec  (  0.4%)
Initial guess               ....       0.171 sec  (  1.9%)
Orbital Transformation      ....       0.000 sec  (  0.0%)
Orbital Orthonormalization  ....       0.000 sec  (  0.0%)
DIIS solution               ....       0.033 sec  (  0.4%)
SOSCF solution              ....       0.014 sec  (  0.1%)
Grid generation             ....       1.341 sec  ( 14.7%)


-------------------------------------------------------------------------------
                          DFT DISPERSION CORRECTION                            
                                                                               
                              DFTD3 V3.1  Rev 1                                
                              USING zero damping                               
-------------------------------------------------------------------------------
The omegaB97X-D3 functional is recognized. Fit by Chai et al.
Active option DFTDOPT                   ...         3   

molecular C6(AA) [au] = 208.714476 


            DFT-D V3
 parameters
 s6 scaling factor         :     1.0000 
 rs6 scaling factor        :     1.2810 
 s8 scaling factor         :     1.0000 
 rs8 scaling factor        :     1.0940 
 Damping factor alpha6     :    14.0000 
 Damping factor alpha8     :    16.0000 
 ad hoc parameters k1-k3   :    16.0000     1.3333    -4.0000 

 Edisp/kcal,au: -0.149837549570  -0.000238781309 
 E6   /kcal   :  -0.029540065 
 E8   /kcal   :  -0.120297485 
 % E8         :  80.285272223 

-------------------------   ----------------
Dispersion correction           -0.000238781
-------------------------   ----------------


-------------------------   --------------------
FINAL SINGLE POINT ENERGY      -115.738050714571
-------------------------   --------------------



           ************************************************************
           *        Program running with 4 parallel MPI-processes     *
           *              working on a common directory               *
           ************************************************************
------------------------------------------------------------------------------
                         ORCA SCF GRADIENT CALCULATION
------------------------------------------------------------------------------

Gradient of the Kohn-Sham DFT energy:
Kohn-Sham wavefunction type      ... RKS
Hartree-Fock exchange scaling    ...    0.196
Number of operators              ...    1
Number of atoms                  ...    6
Basis set dimensions             ...   86
Integral neglect threshold       ... 2.5e-11
Integral primitive cutoff        ... 2.5e-12

Nuclear repulsion gradient       ... done
One Electron Gradient            ... done
Pre-screening matrix             ... done
Starting the two electron gradient:
Two electron gradient done
Exchange-correlation gradient    ... done
Dispersion correction            ... done

------------------
CARTESIAN GRADIENT
------------------

   1   C   :    0.000428126    0.000083769    0.000036439
   2   O   :   -0.000617635   -0.000105252   -0.000065075
   3   H   :   -0.000044714    0.000025191   -0.000030207
   4   H   :    0.000065127    0.000010661    0.000021334
   5   H   :    0.000097572   -0.000009272    0.000023931
   6   H   :    0.000071525   -0.000005097    0.000013578

Difference to translation invariance:
           :    0.0000000000   -0.0000000000    0.0000000000

Norm of the cartesian gradient     ...    0.0007824866
RMS gradient                       ...    0.0001844339
MAX gradient                       ...    0.0006176355

-------
TIMINGS
-------

Total SCF gradient time            ...        1.674 sec

One electron gradient       ....       0.008 sec  (  0.5%)
Prescreening matrices       ....       0.025 sec  (  1.5%)
Two electron gradient       ....       0.841 sec  ( 50.2%)
XC gradient                 ....       0.439 sec  ( 26.2%)
------------------------------------------------------------------------------
                         ORCA GEOMETRY RELAXATION STEP
------------------------------------------------------------------------------

Reading the OPT-File                    .... done
Getting information on internals        .... done
Copying old internal coords+grads       .... done
Making the new internal coordinates     .... (new redundants).... done
Validating the new internal coordinates .... (new redundants).... done
Calculating the B-matrix                .... done
Calculating the G,G- and P matrices     .... done
Transforming gradient to internals      .... done
Projecting the internal gradient        .... done
Number of atoms                         ....   6
Number of internal coordinates          ....  15
Current Energy                          ....  -115.738050715 Eh
Current gradient norm                   ....     0.000782487 Eh/bohr
Maximum allowed component of the step   ....  0.300
Current trust radius                    ....  0.300
Evaluating the initial hessian          ....  (Almloef) done
Projecting the Hessian                  .... done
Forming the augmented Hessian           .... done
Diagonalizing the augmented Hessian     .... done
Last element of RFO vector              ....  0.999999756
Lowest eigenvalues of augmented Hessian:
 -0.000000157  0.021338887  0.181929401  0.192410685  0.313480950
Length of the computed step             ....  0.000698335
The final length of the internal step   ....  0.000698335
Converting the step to cartesian space:
 Initial RMS(Int)=    0.0001803092
Transforming coordinates:
 Iter   0:  RMS(Cart)=    0.0001932198 RMS(Int)=    1.6223020472
 Iter   1:  RMS(Cart)=    0.0000000286 RMS(Int)=    0.0000000305
Imposing constraints:
 Iter   0:  RMS(Cart)=    0.0000000004 RMS(Int)=    0.0000000000
CONVERGED
done
Storing new coordinates                 .... done

                                .--------------------.
          ----------------------|Geometry convergence|-------------------------
          Item                value                   Tolerance       Converged
          ---------------------------------------------------------------------
          RMS gradient        0.0000583452            0.0001000000      YES
          MAX gradient        0.0001203012            0.0003000000      YES
          RMS step            0.0001803092            0.0020000000      YES
          MAX step            0.0003803011            0.0040000000      YES
          ........................................................
          Max(Bonds)      0.0001      Max(Angles)    0.02
          Max(Dihed)        0.00      Max(Improp)    0.00
          ---------------------------------------------------------------------

                    ***********************HURRAY********************
                    ***        THE OPTIMIZATION HAS CONVERGED     ***
                    *************************************************


    ---------------------------------------------------------------------------
                         Redundant Internal Coordinates

                          --- Optimized Parameters ---  
                            (Angstroem and degrees)

        Definition                    OldVal   dE/dq     Step     FinalVal
    ----------------------------------------------------------------------------
     1. B(O   1,C   0)                1.4106 -0.000670  0.0000    1.4106 C 
     2. B(H   2,O   1)                0.9575  0.000016 -0.0000    0.9575   
     3. B(H   3,C   0)                1.0960 -0.000034  0.0001    1.0961   
     4. B(H   4,C   0)                1.0895 -0.000017  0.0000    1.0895   
     5. B(H   5,C   0)                1.0960 -0.000034  0.0001    1.0961   
     6. A(O   1,C   0,H   4)          107.02 -0.000120    0.02    107.04   
     7. A(O   1,C   0,H   3)          112.23 -0.000052    0.01    112.24   
     8. A(O   1,C   0,H   5)          112.23 -0.000052    0.01    112.24   
     9. A(H   3,C   0,H   5)          108.77  0.000070   -0.01    108.76   
    10. A(H   4,C   0,H   5)          108.22  0.000080   -0.01    108.20   
    11. A(H   3,C   0,H   4)          108.22  0.000080   -0.01    108.20   
    12. A(C   0,O   1,H   2)          108.75 -0.000102    0.02    108.77   
    13. D(H   2,O   1,C   0,H   5)    -61.43 -0.000008    0.00    -61.43   
    14. D(H   2,O   1,C   0,H   3)     61.43  0.000007    0.00     61.43   
    15. D(H   2,O   1,C   0,H   4)    180.00 -0.000001    0.00    180.00   
    ----------------------------------------------------------------------------
                 *******************************************************
                 *** FINAL ENERGY EVALUATION AT THE STATIONARY POINT ***
                 ***               (AFTER    1 CYCLES)               ***
                 *******************************************************
---------------------------------
CARTESIAN COORDINATES (ANGSTROEM)
---------------------------------
  C      3.011896   -1.180911    0.598632
  O      4.394296   -1.127979    0.874155
  H      4.771957   -0.378986    0.412430
  H      2.806771   -1.318991   -0.469213
  H      2.611942   -2.040234    1.135952
  H      2.485118   -0.284551    0.945738

----------------------------
CARTESIAN COORDINATES (A.U.)
----------------------------
  NO LB      ZA    FRAG     MASS         X           Y           Z
   0 C     6.0000    0    12.011    5.691658   -2.231597    1.131251
   1 O     8.0000    0    15.999    8.304015   -2.131572    1.651914
   2 H     1.0000    0     1.008    9.017692   -0.716180    0.779381
   3 H     1.0000    0     1.008    5.304029   -2.492531   -0.886683
   4 H     1.0000    0     1.008    4.935855   -3.855484    2.146638
   5 H     1.0000    0     1.008    4.696193   -0.537724    1.787187

--------------------------------
INTERNAL COORDINATES (ANGSTROEM)
--------------------------------
 C      0   0   0     0.000000000000     0.00000000     0.00000000
 O      1   0   0     1.410582667060     0.00000000     0.00000000
 H      2   1   0     0.957501224588   108.76619056     0.00000000
 H      1   2   3     1.096099840926   112.23579197    61.42717150
 H      1   2   3     1.089547264483   107.03869828   180.00011776
 H      1   2   3     1.096101016847   112.23766979   298.57355489

---------------------------
INTERNAL COORDINATES (A.U.)
---------------------------
 C      0   0   0     0.000000000000     0.00000000     0.00000000
 O      1   0   0     2.665614930000     0.00000000     0.00000000
 H      2   1   0     1.809415087365   108.76619056     0.00000000
 H      1   2   3     2.071328514784   112.23579197    61.42717150
 H      1   2   3     2.058945939837   107.03869828   180.00011776
 H      1   2   3     2.071330736954   112.23766979   298.57355489

---------------------
BASIS SET INFORMATION
---------------------
There are 3 groups of distinct atoms

 Group   1 Type C   : 11s6p2d1f contracted to 5s3p2d1f pattern {62111/411/11/1}
 Group   2 Type O   : 11s6p2d1f contracted to 5s3p2d1f pattern {62111/411/11/1}
 Group   3 Type H   : 5s1p contracted to 3s1p pattern {311/1}

Atom   0C    basis set group =>   1
Atom   1O    basis set group =>   2
Atom   2H    basis set group =>   3
Atom   3H    basis set group =>   3
Atom   4H    basis set group =>   3
Atom   5H    basis set group =>   3


           ************************************************************
           *        Program running with 4 parallel MPI-processes     *
           *              working on a common directory               *
           ************************************************************
------------------------------------------------------------------------------
                           ORCA GTO INTEGRAL CALCULATION
------------------------------------------------------------------------------

                         BASIS SET STATISTICS AND STARTUP INFO

 # of primitive gaussian shells          ...   64
 # of primitive gaussian functions       ...  124
 # of contracted shells                  ...   38
 # of contracted basis functions         ...   86
 Highest angular momentum                ...    3
 Maximum contraction depth               ...    6
 Integral package used                   ... LIBINT
 Integral threshhold            Thresh   ...  2.500e-11
 Primitive cut-off              TCut     ...  2.500e-12


------------------------------ INTEGRAL EVALUATION ----------------------------


 * One electron integrals 
 Pre-screening matrix                    ... done
 Shell pair data                         ... done (   0.000 sec)



           ************************************************************
           *        Program running with 4 parallel MPI-processes     *
           *              working on a common directory               *
           ************************************************************
-------------------------------------------------------------------------------
                                 ORCA SCF
-------------------------------------------------------------------------------

------------
SCF SETTINGS
------------
Hamiltonian:
 Density Functional     Method          .... DFT(GTOs)
 Exchange Functional    Exchange        .... WB97X-D3
 Correlation Functional Correlation     .... WB97X-D3
 Gradients option       PostSCFGGA      .... off
 Hybrid DFT is turned on
   Fraction HF Exchange ScalHFX         ....  0.195728
   Scaling of DF-GGA-X  ScalDFX         ....  0.000000
   Scaling of DF-GGA-C  ScalDFC         ....  1.000000
   Scaling of DF-LDA-C  ScalLDAC        ....  1.000000
   Perturbative correction              ....  0.000000
   Density functional embedding theory  .... OFF
 Long-range corrected/Screened/Range-Separated Hybrid DFT is turned on
   Amount of maximum screened exact exchange              ....  0.804272
   Range separation parameter mu (erf(mu*r12)/r12)        ....  0.250000


General Settings:
 Integral files         IntName         .... 10_geo_opt
 Hartree-Fock type      HFTyp           .... RHF
 Total Charge           Charge          ....    0
 Multiplicity           Mult            ....    1
 Number of Electrons    NEL             ....   18
 Basis Dimension        Dim             ....   86
 Nuclear Repulsion      ENuc            ....     40.4534225493 Eh

Convergence Acceleration:
 DIIS                   CNVDIIS         .... on
   Start iteration      DIISMaxIt       ....    12
   Startup error        DIISStart       ....  0.200000
   # of expansion vecs  DIISMaxEq       ....     5
   Bias factor          DIISBfac        ....   1.050
   Max. coefficient     DIISMaxC        ....  10.000
 Newton-Raphson         CNVNR           .... off
 SOSCF                  CNVSOSCF        .... on
   Start iteration      SOSCFMaxIt      ....   150
   Startup grad/error   SOSCFStart      ....  0.003300
 Level Shifting         CNVShift        .... on
   Level shift para.    LevelShift      ....    0.2500
   Turn off err/grad.   ShiftErr        ....    0.0010
 Zerner damping         CNVZerner       .... off
 Static damping         CNVDamp         .... on
   Fraction old density DampFac         ....    0.7000
   Max. Damping (<1)    DampMax         ....    0.9800
   Min. Damping (>=0)   DampMin         ....    0.0000
   Turn off err/grad.   DampErr         ....    0.1000
 Fernandez-Rico         CNVRico         .... off

SCF Procedure:
 Maximum # iterations   MaxIter         ....   125
 SCF integral mode      SCFMode         .... Direct
   Integral package                     .... LIBINT
 Reset frequency        DirectResetFreq ....    20
 Integral Threshold     Thresh          ....  2.500e-11 Eh
 Primitive CutOff       TCut            ....  2.500e-12 Eh

Convergence Tolerance:
 Convergence Check Mode ConvCheckMode   .... Total+1el-Energy
 Convergence forced     ConvForced      .... 0
 Energy Change          TolE            ....  1.000e-08 Eh
 1-El. energy change                    ....  1.000e-05 Eh
 Orbital Gradient       TolG            ....  1.000e-05
 Orbital Rotation angle TolX            ....  1.000e-05
 DIIS Error             TolErr          ....  5.000e-07


Diagonalization of the overlap matrix:
Smallest eigenvalue                        ... 1.650e-03
Time for diagonalization                   ...    0.002 sec
Threshold for overlap eigenvalues          ... 1.000e-08
Number of eigenvalues below threshold      ... 0
Time for construction of square roots      ...    0.003 sec
Total time needed                          ...    0.006 sec

---------------------
INITIAL GUESS: MOREAD
---------------------
Guess MOs are being read from file: 10_geo_opt.gbw
Input Geometry matches current geometry (good)
Input basis set matches current basis set (good)
MOs were renormalized
MOs were reorthogonalized (Cholesky)
                      ------------------
                      INITIAL GUESS DONE (   0.0 sec)
                      ------------------
-------------------
DFT GRID GENERATION
-------------------

General Integration Accuracy     IntAcc      ...  5.010
Radial Grid Type                 RadialGrid  ... Gauss-Chebyshev
Angular Grid (max. acc.)         AngularGrid ... Lebedev-434
Angular grid pruning method      GridPruning ... 3 (G Style)
Weight generation scheme         WeightScheme... Becke
Basis function cutoff            BFCut       ...    1.0000e-11
Integration weight cutoff        WCut        ...    1.0000e-14
Grids for H and He will be reduced by one unit

# of grid points (after initial pruning)     ...  48308 (   0.0 sec)
# of grid points (after weights+screening)   ...  46677 (   0.0 sec)
nearest neighbour list constructed           ...    0.0 sec
Grid point re-assignment to atoms done       ...    0.0 sec
Grid point division into batches done        ...    0.3 sec
Reduced shell lists constructed in    0.3 sec

Total number of grid points                  ...    46677
Total number of batches                      ...      733
Average number of points per batch           ...       63
Average number of grid points per atom       ...     7780
Average number of shells per batch           ...    33.11 (87.13%)
Average number of basis functions per batch  ...    76.77 (89.27%)
Average number of large shells per batch     ...    30.59 (92.41%)
Average number of large basis fcns per batch ...    72.23 (94.08%)
Maximum spatial batch extension              ...  15.77, 14.99, 16.58 au
Average spatial batch extension              ...   0.40,  0.40,  0.43 au

Time for grid setup =    0.374 sec

--------------
SCF ITERATIONS
--------------
ITER       Energy         Delta-E        Max-DP      RMS-DP      [F,P]     Damp
               ***  Starting incremental Fock matrix formation  ***
                      *** Initiating the SOSCF procedure ***
                      *** Re-Reading the Fockian *** 
                      *** Removing any level shift *** 
ITER      Energy       Delta-E        Grad      Rot      Max-DP    RMS-DP
  0   -115.73770388 -115.7377038829  0.000019  0.000019  0.000020  0.000001
               *** Restarting incremental Fock matrix formation ***
  1   -115.73770389  -0.0000000115  0.000010  0.000010  0.000010  0.000001
  2   -115.73770390  -0.0000000013  0.000006  0.000005  0.000006  0.000000
                  ***Gradient check signals convergence***
              ***Rediagonalizing the Fockian in SOSCF/NRSCF***

               *****************************************************
               *                     SUCCESS                       *
               *           SCF CONVERGED AFTER   3 CYCLES          *
               *****************************************************

Setting up the final grid:

General Integration Accuracy     IntAcc      ...  5.340
Radial Grid Type                 RadialGrid  ... Gauss-Chebyshev
Angular Grid (max. acc.)         AngularGrid ... Lebedev-590
Angular grid pruning method      GridPruning ... 3 (G Style)
Weight generation scheme         WeightScheme... Becke
Basis function cutoff            BFCut       ...    1.0000e-11
Integration weight cutoff        WCut        ...    1.0000e-14
Grids for H and He will be reduced by one unit

# of grid points (after initial pruning)     ...  77324 (   0.0 sec)
# of grid points (after weights+screening)   ...  74512 (   0.0 sec)
nearest neighbour list constructed           ...    0.0 sec
Grid point re-assignment to atoms done       ...    0.0 sec
Grid point division into batches done        ...    0.8 sec
Reduced shell lists constructed in    0.8 sec

Total number of grid points                  ...    74512
Total number of batches                      ...     1167
Average number of points per batch           ...       63
Average number of grid points per atom       ...    12419
Average number of shells per batch           ...    32.94 (86.68%)
Average number of basis functions per batch  ...    76.38 (88.81%)
Average number of large shells per batch     ...    30.31 (92.01%)
Average number of large basis fcns per batch ...    71.50 (93.61%)
Maximum spatial batch extension              ...  13.18, 14.25, 15.48 au
Average spatial batch extension              ...   0.34,  0.36,  0.37 au

Final grid set up in    0.9 sec
Final integration                            ... done (   0.2 sec)
Change in XC energy                          ...    -0.000108019
Integrated number of electrons               ...    18.000000743
Previous integrated no of electrons          ...    18.000002250

----------------
TOTAL SCF ENERGY
----------------

Total Energy       :         -115.73781191 Eh           -3149.38597 eV

Components:
Nuclear Repulsion  :           40.45342255 Eh            1100.79359 eV
Electronic Energy  :         -156.19123446 Eh           -4250.17956 eV
One Electron Energy:         -237.32490749 Eh           -6457.93905 eV
Two Electron Energy:           81.13367302 Eh            2207.75948 eV

Virial components:
Potential Energy   :         -230.99017168 Eh           -6285.56212 eV
Kinetic Energy     :          115.25235977 Eh            3136.17615 eV
Virial Ratio       :            2.00421208


DFT components:
N(Alpha)           :        9.000000371418 electrons
N(Beta)            :        9.000000371418 electrons
N(Total)           :       18.000000742837 electrons
E(XC)              :      -10.655985045317 Eh       
DFET-embed. en.    :        0.000000000000 Eh       

---------------
SCF CONVERGENCE
---------------

  Last Energy change         ...   -4.0166e-10  Tolerance :   1.0000e-08
  Last MAX-Density change    ...    1.2805e-06  Tolerance :   1.0000e-07
  Last RMS-Density change    ...    9.8669e-08  Tolerance :   5.0000e-09
  Last Orbital Gradient      ...    1.5383e-06  Tolerance :   1.0000e-05
  Last Orbital Rotation      ...    1.1990e-06  Tolerance :   1.0000e-05

             **** THE GBW FILE WAS UPDATED (10_geo_opt.gbw) ****
             **** DENSITY FILE WAS UPDATED (10_geo_opt.scfp.tmp) ****
             **** ENERGY FILE WAS UPDATED (10_geo_opt.en.tmp) ****
----------------
ORBITAL ENERGIES
----------------

  NO   OCC          E(Eh)            E(eV) 
   0   2.0000     -19.228086      -523.2228 
   1   2.0000     -10.315033      -280.6863 
   2   2.0000      -1.137113       -30.9424 
   3   2.0000      -0.795308       -21.6414 
   4   2.0000      -0.611785       -16.6475 
   5   2.0000      -0.541856       -14.7446 
   6   2.0000      -0.526469       -14.3260 
   7   2.0000      -0.433699       -11.8016 
   8   2.0000      -0.373559       -10.1651 
   9   0.0000       0.116644         3.1740 
  10   0.0000       0.156734         4.2650 
  11   0.0000       0.202606         5.5132 
  12   0.0000       0.205145         5.5823 
  13   0.0000       0.226471         6.1626 
  14   0.0000       0.304350         8.2818 
  15   0.0000       0.313363         8.5271 
  16   0.0000       0.404919        11.0184 
  17   0.0000       0.452799        12.3213 
  18   0.0000       0.484949        13.1961 
  19   0.0000       0.535794        14.5797 
  20   0.0000       0.543592        14.7919 
  21   0.0000       0.567678        15.4473 
  22   0.0000       0.598634        16.2896 
  23   0.0000       0.603606        16.4250 
  24   0.0000       0.671309        18.2672 
  25   0.0000       0.779103        21.2005 
  26   0.0000       0.832316        22.6485 
  27   0.0000       0.861321        23.4377 
  28   0.0000       0.989560        26.9273 
  29   0.0000       1.013899        27.5896 
  30   0.0000       1.110089        30.2070 
  31   0.0000       1.382702        37.6252 
  32   0.0000       1.512953        41.1695 
  33   0.0000       1.553796        42.2809 
  34   0.0000       1.602871        43.6163 
  35   0.0000       1.613279        43.8996 
  36   0.0000       1.624260        44.1984 
  37   0.0000       1.660130        45.1744 
  38   0.0000       1.688265        45.9400 
  39   0.0000       1.774575        48.2886 
  40   0.0000       1.952047        53.1179 
  41   0.0000       2.030511        55.2530 
  42   0.0000       2.055369        55.9294 
  43   0.0000       2.094300        56.9888 
  44   0.0000       2.114810        57.5469 
  45   0.0000       2.268555        61.7305 
  46   0.0000       2.334072        63.5133 
  47   0.0000       2.345514        63.8247 
  48   0.0000       2.381320        64.7990 
  49   0.0000       2.429634        66.1137 
  50   0.0000       2.497791        67.9684 
  51   0.0000       2.596276        70.6483 
  52   0.0000       2.639897        71.8353 
  53   0.0000       2.707355        73.6709 
  54   0.0000       2.842386        77.3453 
  55   0.0000       2.871698        78.1429 
  56   0.0000       2.888504        78.6002 
  57   0.0000       2.993058        81.4453 
  58   0.0000       3.096278        84.2540 
  59   0.0000       3.173474        86.3546 
  60   0.0000       3.299576        89.7860 
  61   0.0000       3.408061        92.7381 
  62   0.0000       3.442416        93.6729 
  63   0.0000       3.488736        94.9333 
  64   0.0000       3.613732        98.3347 
  65   0.0000       3.645588        99.2015 
  66   0.0000       3.667333        99.7932 
  67   0.0000       4.005822       109.0040 
  68   0.0000       4.223717       114.9332 
  69   0.0000       4.273453       116.2866 
  70   0.0000       4.455222       121.2327 
  71   0.0000       4.564159       124.1971 
  72   0.0000       5.346452       145.4844 
  73   0.0000       5.425788       147.6432 
  74   0.0000       5.554687       151.1507 
  75   0.0000       5.827832       158.5834 
  76   0.0000       5.835305       158.7867 
  77   0.0000       5.986941       162.9129 
  78   0.0000       6.379963       173.6076 
  79   0.0000       6.531083       177.7198 
  80   0.0000       6.745083       183.5430 
  81   0.0000       6.804673       185.1646 
  82   0.0000       7.039370       191.5510 
  83   0.0000       7.216373       196.3675 
  84   0.0000      22.408564       609.7680 
  85   0.0000      43.664725      1188.1776 

                    ********************************
                    * MULLIKEN POPULATION ANALYSIS *
                    ********************************

-----------------------
MULLIKEN ATOMIC CHARGES
-----------------------
   0 C :   -0.150629
   1 O :   -0.477477
   2 H :    0.313062
   3 H :    0.098461
   4 H :    0.118118
   5 H :    0.098465
Sum of atomic charges:   -0.0000000

--------------------------------
MULLIKEN REDUCED ORBITAL CHARGES
--------------------------------
  0 C s       :     3.222892  s :     3.222892
      pz      :     1.047189  p :     2.825913
      px      :     0.702141
      py      :     1.076582
      dz2     :     0.011112  d :     0.094386
      dxz     :     0.032560
      dyz     :     0.002647
      dx2y2   :     0.012736
      dxy     :     0.035330
      f0      :     0.001358  f :     0.007438
      f+1     :     0.000959
      f-1     :     0.000175
      f+2     :     0.001468
      f-2     :     0.000123
      f+3     :     0.001363
      f-3     :     0.001992
  1 O s       :     3.792615  s :     3.792615
      pz      :     1.759327  p :     4.652561
      px      :     1.313764
      py      :     1.579470
      dz2     :     0.003140  d :     0.030614
      dxz     :     0.006489
      dyz     :     0.005835
      dx2y2   :     0.008942
      dxy     :     0.006208
      f0      :     0.000270  f :     0.001688
      f+1     :     0.000234
      f-1     :     0.000087
      f+2     :     0.000288
      f-2     :     0.000235
      f+3     :     0.000368
      f-3     :     0.000207
  2 H s       :     0.639250  s :     0.639250
      pz      :     0.017005  p :     0.047688
      px      :     0.012718
      py      :     0.017965
  3 H s       :     0.882175  s :     0.882175
      pz      :     0.012070  p :     0.019364
      px      :     0.003008
      py      :     0.004285
  4 H s       :     0.861662  s :     0.861662
      pz      :     0.006296  p :     0.020220
      px      :     0.004196
      py      :     0.009727
  5 H s       :     0.882172  s :     0.882172
      pz      :     0.004929  p :     0.019363
      px      :     0.004979
      py      :     0.009456


                     *******************************
                     * LOEWDIN POPULATION ANALYSIS *
                     *******************************

----------------------
LOEWDIN ATOMIC CHARGES
----------------------
   0 C :   -0.385932
   1 O :   -0.075353
   2 H :    0.165880
   3 H :    0.093360
   4 H :    0.108688
   5 H :    0.093358

-------------------------------
LOEWDIN REDUCED ORBITAL CHARGES
-------------------------------
  0 C s       :     2.862706  s :     2.862706
      pz      :     1.096510  p :     3.052293
      px      :     0.846380
      py      :     1.109403
      dz2     :     0.072498  d :     0.413733
      dxz     :     0.114333
      dyz     :     0.020705
      dx2y2   :     0.082229
      dxy     :     0.123967
      f0      :     0.007845  f :     0.057200
      f+1     :     0.007183
      f-1     :     0.000857
      f+2     :     0.012566
      f-2     :     0.004841
      f+3     :     0.011761
      f-3     :     0.012146
  1 O s       :     3.365661  s :     3.365661
      pz      :     1.698741  p :     4.633295
      px      :     1.381474
      py      :     1.553079
      dz2     :     0.006145  d :     0.071739
      dxz     :     0.017925
      dyz     :     0.008084
      dx2y2   :     0.019364
      dxy     :     0.020221
      f0      :     0.000484  f :     0.004659
      f+1     :     0.000625
      f-1     :     0.000072
      f+2     :     0.001054
      f-2     :     0.000561
      f+3     :     0.000892
      f-3     :     0.000971
  2 H s       :     0.675063  s :     0.675063
      pz      :     0.055744  p :     0.159058
      px      :     0.033904
      py      :     0.069410
  3 H s       :     0.846834  s :     0.846834
      pz      :     0.036169  p :     0.059807
      px      :     0.009711
      py      :     0.013926
  4 H s       :     0.831732  s :     0.831732
      pz      :     0.019206  p :     0.059580
      px      :     0.011609
      py      :     0.028765
  5 H s       :     0.846835  s :     0.846835
      pz      :     0.015601  p :     0.059806
      px      :     0.015202
      py      :     0.029004


                      *****************************
                      * MAYER POPULATION ANALYSIS *
                      *****************************

  NA   - Mulliken gross atomic population
  ZA   - Total nuclear charge
  QA   - Mulliken gross atomic charge
  VA   - Mayer's total valence
  BVA  - Mayer's bonded valence
  FA   - Mayer's free valence

  ATOM       NA         ZA         QA         VA         BVA        FA
  0 C      6.1506     6.0000    -0.1506     3.9352     3.9352    -0.0000
  1 O      8.4775     8.0000    -0.4775     1.8881     1.8881    -0.0000
  2 H      0.6869     1.0000     0.3131     0.9136     0.9136    -0.0000
  3 H      0.9015     1.0000     0.0985     0.9596     0.9596    -0.0000
  4 H      0.8819     1.0000     0.1181     0.9597     0.9597    -0.0000
  5 H      0.9015     1.0000     0.0985     0.9596     0.9596    -0.0000

  Mayer bond orders larger than 0.1
B(  0-C ,  1-O ) :   0.9988 B(  0-C ,  3-H ) :   0.9756 B(  0-C ,  4-H ) :   0.9749 
B(  0-C ,  5-H ) :   0.9756 B(  1-O ,  2-H ) :   0.9001 

-------
TIMINGS
-------

Total SCF time: 0 days 0 hours 0 min 4 sec 

Total time                  ....       4.094 sec
Sum of individual times     ....       3.794 sec  ( 92.7%)

Fock matrix formation       ....       2.492 sec  ( 60.9%)
  XC integration            ....       0.768 sec  ( 30.8% of F)
    Basis function eval.    ....       0.167 sec  ( 21.7% of XC)
    Density eval.           ....       0.108 sec  ( 14.0% of XC)
    XC-Functional eval.     ....       0.268 sec  ( 35.0% of XC)
    XC-Potential eval.      ....       0.105 sec  ( 13.7% of XC)
Diagonalization             ....       0.002 sec  (  0.1%)
Density matrix formation    ....       0.001 sec  (  0.0%)
Population analysis         ....       0.012 sec  (  0.3%)
Initial guess               ....       0.003 sec  (  0.1%)
Orbital Transformation      ....       0.000 sec  (  0.0%)
Orbital Orthonormalization  ....       0.002 sec  (  0.0%)
DIIS solution               ....       0.000 sec  (  0.0%)
SOSCF solution              ....       0.015 sec  (  0.4%)
Grid generation             ....       1.267 sec  ( 31.0%)


-------------------------------------------------------------------------------
                          DFT DISPERSION CORRECTION                            
                                                                               
                              DFTD3 V3.1  Rev 1                                
                              USING zero damping                               
-------------------------------------------------------------------------------
The omegaB97X-D3 functional is recognized. Fit by Chai et al.
Active option DFTDOPT                   ...         3   

molecular C6(AA) [au] = 208.714739 


            DFT-D V3
 parameters
 s6 scaling factor         :     1.0000 
 rs6 scaling factor        :     1.2810 
 s8 scaling factor         :     1.0000 
 rs8 scaling factor        :     1.0940 
 Damping factor alpha6     :    14.0000 
 Damping factor alpha8     :    16.0000 
 ad hoc parameters k1-k3   :    16.0000     1.3333    -4.0000 

 Edisp/kcal,au: -0.149920754445  -0.000238913904 
 E6   /kcal   :  -0.029563377 
 E8   /kcal   :  -0.120357377 
 % E8         :  80.280663979 

-------------------------   ----------------
Dispersion correction           -0.000238914
-------------------------   ----------------


-------------------------   --------------------
FINAL SINGLE POINT ENERGY      -115.738050828722
-------------------------   --------------------

                                *** OPTIMIZATION RUN DONE ***

                            ***************************************
                            *     ORCA property calculations      *
                            ***************************************

                                    ---------------------
                                    Active property flags
                                    ---------------------
   (+) Dipole Moment


------------------------------------------------------------------------------
                       ORCA ELECTRIC PROPERTIES CALCULATION
------------------------------------------------------------------------------

Dipole Moment Calculation                       ... on
Quadrupole Moment Calculation                   ... off
Polarizability Calculation                      ... off
GBWName                                         ... 10_geo_opt.gbw
Electron density file                           ... 10_geo_opt.scfp.tmp
The origin for moment calculation is the CENTER OF MASS  = ( 7.033389, -2.139987  1.369252)

-------------
DIPOLE MOMENT
-------------
                                X             Y             Z
Electronic contribution:      1.75677      -0.02808       0.41986
Nuclear contribution   :     -2.06516       0.47569      -0.81719
                        -----------------------------------------
Total Dipole Moment    :     -0.30839       0.44761      -0.39733
                        -----------------------------------------
Magnitude (a.u.)       :      0.67330
Magnitude (Debye)      :      1.71139



--------------------
Rotational spectrum 
--------------------
 
Rotational constants in cm-1:     4.293382     0.834705     0.805763 
Rotational constants in MHz : 128712.354280 25023.813232 24156.159557 

 Dipole components along the rotational axes: 
x,y,z [a.u.] :    -0.331367     0.586111    -0.000005 
x,y,z [Debye]:    -0.842268     1.489776    -0.000011 

 
------------------------------------------------------------------------------
                      ORCA CHELPG CHARGES GENERATION
------------------------------------------------------------------------------

GBW file                           ... 10_geo_opt.gbw

Reading the GBW file               ... done

Grid spacing                       ...     0.300000
Point Cut-Off                      ...     2.800000
Van-der-Waals Radii                ...        COSMO
Total charge                       ...            0


Number of points X direction       ...           26
Number of points Y direction       ...           24
Number of points Z direction       ...           24
Maximum number of possible points  ...        14976
Final number of points             ...         5946


CHELPG Charges            
--------------------------------
  0   C   :       0.094956
  1   O   :      -0.606962
  2   H   :       0.403938
  3   H   :       0.013923
  4   H   :       0.080683
  5   H   :       0.013462
--------------------------------
Total charge:    -0.000000
--------------------------------

CHELPG charges calculated...

Timings for individual parts in CHELPG calculation:
Grid generation                 ...        0.002 sec (=   0.000 min)
Potential calculation           ...        0.757 sec (=   0.013 min)
Fit to the potential            ...        0.001 sec (=   0.000 min)
------------------------------------------------------------------------------


Timings for individual modules:

Sum of individual times         ...       33.021 sec (=   0.550 min)
GTO integral calculation        ...        6.731 sec (=   0.112 min)  20.4 %
SCF iterations                  ...       16.925 sec (=   0.282 min)  51.3 %
SCF Gradient evaluation         ...        3.217 sec (=   0.054 min)   9.7 %
Geometry relaxation             ...        2.503 sec (=   0.042 min)   7.6 %
CHELPG charge generation        ...        3.646 sec (=   0.061 min)  11.0 %
                             ****ORCA TERMINATED NORMALLY****
TOTAL RUN TIME: 0 days 0 hours 0 minutes 38 seconds 673 msec
