
                                 *****************
                                 * O   R   C   A *
                                 *****************

           --- An Ab Initio, DFT and Semiempirical electronic structure package ---

                  #######################################################
                  #                        -***-                        #
                  #          Department of theory and spectroscopy      #
                  #               Directorship: Frank Neese             #
                  #        Max Planck Institute fuer Kohlenforschung    #
                  #                Kaiser Wilhelm Platz 1               #
                  #                 D-45470 Muelheim/Ruhr               #
                  #                      Germany                        #
                  #                                                     #
                  #                  All rights reserved                #
                  #                        -***-                        #
                  #######################################################


                         Program Version 4.1.2  - RELEASE  -


 With contributions from (in alphabetic order):
   Daniel Aravena         : Magnetic Properties
   Michael Atanasov       : Ab Initio Ligand Field Theory
   Alexander A. Auer      : GIAO ZORA
   Ute Becker             : Parallelization
   Giovanni Bistoni       : ED, Open-shell LED
   Martin Brehm           : Molecular dynamics
   Dmytro Bykov           : SCF Hessian
   Vijay G. Chilkuri      : MRCI spin determinant printing
   Dipayan Datta          : RHF DLPNO-CCSD density
   Achintya Kumar Dutta   : EOM-CC, STEOM-CC
   Dmitry Ganyushin       : Spin-Orbit,Spin-Spin,Magnetic field MRCI
   Miquel Garcia          : C-PCM Hessian
   Yang Guo               : DLPNO-NEVPT2, CIM, IAO-localization
   Andreas Hansen         : Spin unrestricted coupled pair/coupled cluster methods
   Benjamin Helmich-Paris : CASSCF linear response (MC-RPA)
   Lee Huntington         : MR-EOM, pCC
   Robert Izsak           : Overlap fitted RIJCOSX, COSX-SCS-MP3, EOM
   Christian Kollmar      : KDIIS, OOCD, Brueckner-CCSD(T), CCSD density
   Simone Kossmann        : Meta GGA functionals, TD-DFT gradient, OOMP2, MP2 Hessian
   Martin Krupicka        : AUTO-CI
   Lucas Lang             : DCDCAS
   Dagmar Lenk            : GEPOL surface, SMD
   Dimitrios Liakos       : Extrapolation schemes; parallel MDCI
   Dimitrios Manganas     : ROCIS; embedding schemes
   Dimitrios Pantazis     : SARC Basis sets
   Taras Petrenko         : DFT Hessian,TD-DFT gradient, ASA, ECA, R-Raman, ABS, FL, XAS/XES, NRVS
   Peter Pinski           : DLPNO-MP2, DLPNO-MP2 Gradient
   Christoph Reimann      : Effective Core Potentials
   Marius Retegan         : Local ZFS, SOC
   Christoph Riplinger    : Optimizer, TS searches, QM/MM, DLPNO-CCSD(T), (RO)-DLPNO pert. Triples
   Tobias Risthaus        : Range-separated hybrids, TD-DFT gradient, RPA, STAB
   Michael Roemelt        : Restricted open shell CIS
   Masaaki Saitow         : Open-shell DLPNO
   Barbara Sandhoefer     : DKH picture change effects
   Avijit Sen             : IP-ROCIS
   Kantharuban Sivalingam : CASSCF convergence, NEVPT2, FIC-MRCI
   Bernardo de Souza      : ESD, SOC TD-DFT
   Georgi Stoychev        : AutoAux, RI-MP2 NMR
   Willem Van den Heuvel  : Paramagnetic NMR
   Boris Wezisla          : Elementary symmetry handling
   Frank Wennmohs         : Technical directorship


 We gratefully acknowledge several colleagues who have allowed us to
 interface, adapt or use parts of their codes:
   Stefan Grimme, W. Hujo, H. Kruse,             : VdW corrections, initial TS optimization,
                  C. Bannwarth                     DFT functionals, gCP, sTDA/sTD-DF
   Ed Valeev                                     : LibInt (2-el integral package), F12 methods
   Garnet Chan, S. Sharma, J. Yang, R. Olivares  : DMRG
   Ulf Ekstrom                                   : XCFun DFT Library
   Mihaly Kallay                                 : mrcc  (arbitrary order and MRCC methods)
   Andreas Klamt, Michael Diedenhofen            : otool_cosmo (COSMO solvation model)
   Jiri Pittner, Ondrej Demel                    : Mk-CCSD
   Frank Weinhold                                : gennbo (NPA and NBO analysis)
   Christopher J. Cramer and Donald G. Truhlar   : smd solvation model
   Lars Goerigk                                  : TD-DFT with DH, B97 family of functionals
   V. Asgeirsson, H. Jonsson                     : NEB implementation
   FAccTs GmbH                                   : IRC, NEB, NEB-TS, Multilevel


 Your calculation uses the libint2 library for the computation of 2-el integrals
 For citations please refer to: http://libint.valeyev.net

 This ORCA versions uses:
   CBLAS   interface :  Fast vector & matrix operations
   LAPACKE interface :  Fast linear algebra routines
   SCALAPACK package :  Parallel linear algebra routines


Your calculation utilizes the atom-pairwise dispersion correction
with the zero-damping scheme (D30)
Cite in your paper:
S.Grimme, J.Antony, S.Ehrlich and H.Krieg, J.Chem.Phys., 132, (2010), 154104 
   

XCFun DFT library Copyright 2009-2010 Ulf Ekstrom and contributors.
See http://admol.org/xcfun for more information. This is free soft-
ware; see the source code for copying conditions. There is ABSOLUTELY
NO WARRANTY; not even for MERCHANTABILITY or FITNESS FOR A PARTICULAR
PURPOSE. For details see the documentation. Scientific users of this 
library should cite U. Ekstrom, L. Visscher, R. Bast, A. J. Thorvald-
sen and K. Ruud; J.Chem.Theor.Comp. 2010, DOI: 10.1021/ct100117s
XCFun Version 0.99 
----- Orbital basis set information -----
Your calculation utilizes the basis: def2-TZVP
   F. Weigend and R. Ahlrichs, Phys. Chem. Chem. Phys. 7, 3297 (2005).

================================================================================
                                        WARNINGS
                       Please study these warnings very carefully!
================================================================================


INFO   : the flag for use of LIBINT has been found!

Your calculation utilizes the atom-pairwise dispersion correction
with the zero-damping scheme (D30)
Cite in your paper:
S.Grimme, J.Antony, S.Ehrlich and H.Krieg, J.Chem.Phys., 132, (2010), 154104 
   

XCFun DFT library Copyright 2009-2010 Ulf Ekstrom and contributors.
See http://admol.org/xcfun for more information. This is free soft-
ware; see the source code for copying conditions. There is ABSOLUTELY
NO WARRANTY; not even for MERCHANTABILITY or FITNESS FOR A PARTICULAR
PURPOSE. For details see the documentation. Scientific users of this 
library should cite U. Ekstrom, L. Visscher, R. Bast, A. J. Thorvald-
sen and K. Ruud; J.Chem.Theor.Comp. 2010, DOI: 10.1021/ct100117s
XCFun Version 0.99 
----- Orbital basis set information -----
Your calculation utilizes the basis: def2-TZVP
   F. Weigend and R. Ahlrichs, Phys. Chem. Chem. Phys. 7, 3297 (2005).

================================================================================
                                        WARNINGS
                       Please study these warnings very carefully!
================================================================================


WARNING: MOInp is set but Guess=PModel. MOInp will be ignored!
         To read the initial guess from a file you must also specify
         'MORead' in the simple input or 'Guess MORead' in the %scf block


INFO   : the flag for use of LIBINT has been found!

Your calculation utilizes the atom-pairwise dispersion correction
with the zero-damping scheme (D30)
Cite in your paper:
S.Grimme, J.Antony, S.Ehrlich and H.Krieg, J.Chem.Phys., 132, (2010), 154104 
   

XCFun DFT library Copyright 2009-2010 Ulf Ekstrom and contributors.
See http://admol.org/xcfun for more information. This is free soft-
ware; see the source code for copying conditions. There is ABSOLUTELY
NO WARRANTY; not even for MERCHANTABILITY or FITNESS FOR A PARTICULAR
PURPOSE. For details see the documentation. Scientific users of this 
library should cite U. Ekstrom, L. Visscher, R. Bast, A. J. Thorvald-
sen and K. Ruud; J.Chem.Theor.Comp. 2010, DOI: 10.1021/ct100117s
XCFun Version 0.99 
----- Orbital basis set information -----
Your calculation utilizes the basis: def2-TZVP
   F. Weigend and R. Ahlrichs, Phys. Chem. Chem. Phys. 7, 3297 (2005).

================================================================================
                                        WARNINGS
                       Please study these warnings very carefully!
================================================================================


WARNING: MOInp is set but Guess=PModel. MOInp will be ignored!
         To read the initial guess from a file you must also specify
         'MORead' in the simple input or 'Guess MORead' in the %scf block


INFO   : the flag for use of LIBINT has been found!

================================================================================
                                       INPUT FILE
================================================================================
NAME = 7-186.in
|  1> #Run DFT-D3 single point of the dimer
|  2> ! wB97X-D3 def2-TZVP TIGHTSCF CHELPG PMODEL PAL8
|  3> 
|  4> %base "7-186_DFT_AB"
|  5> 
|  6> %scf
|  7> MaxIter 1000
|  8> end
|  9> 
| 10> * xyz 0 1
| 11>   C                      -10.366333           9.400364             4.873024            
| 12>   O                      -9.797859            8.155894             5.312416            
| 13>   H                      -9.687546            8.081210             6.256478            
| 14>   H                      -9.800704            10.228057            5.250804            
| 15>   H                      -10.356732           9.413983             3.799430            
| 16>   H                      -11.441551           9.558626             5.335335            
| 17>   C                      -6.346602            8.671174             5.587876            
| 18>   O                      -6.952775            8.576678             4.285436            
| 19>   H                      -7.872058            8.422140             4.431306            
| 20>   H                      -6.546244            9.659491             6.022486            
| 21>   H                      -6.779597            7.839161             6.158286            
| 22>   H                      -5.274438            8.470878             5.635149            
| 23> *
| 24> 
| 25> #Run DFT-D3 single point of the molecule with dimer basis set
| 26> $new_job
| 27> %base "7-186_DFT_A"
| 28> ! wB97X-D3 def2-TZVP TIGHTSCF CHELPG PMODEL
| 29> 
| 30> %scf
| 31> MaxIter 1000
| 32> end
| 33> 
| 34> * xyz 0 1
| 35>   C                      -10.366333           9.400364             4.873024            
| 36>   O                      -9.797859            8.155894             5.312416            
| 37>   H                      -9.687546            8.081210             6.256478            
| 38>   H                      -9.800704            10.228057            5.250804            
| 39>   H                      -10.356732           9.413983             3.799430            
| 40>   H                      -11.441551           9.558626             5.335335            
| 41>   C                    : -6.346602            8.671174             5.587876            
| 42>   O                    : -6.952775            8.576678             4.285436            
| 43>   H                    : -7.872058            8.422140             4.431306            
| 44>   H                    : -6.546244            9.659491             6.022486            
| 45>   H                    : -6.779597            7.839161             6.158286            
| 46>   H                    : -5.274438            8.470878             5.635149            
| 47> *
| 48> 
| 49> #Run DFT-D3 single point of the particle with dimer basis set
| 50> $new_job
| 51> %base "7-186_DFT_B"
| 52> ! wB97X-D3 def2-TZVP TIGHTSCF CHELPG PMODEL
| 53> 
| 54> %scf
| 55> MaxIter 1000
| 56> end
| 57> 
| 58> * xyz 0 1
| 59>   C                    : -10.366333           9.400364             4.873024            
| 60>   O                    : -9.797859            8.155894             5.312416            
| 61>   H                    : -9.687546            8.081210             6.256478            
| 62>   H                    : -9.800704            10.228057            5.250804            
| 63>   H                    : -10.356732           9.413983             3.799430            
| 64>   H                    : -11.441551           9.558626             5.335335            
| 65>   C                      -6.346602            8.671174             5.587876            
| 66>   O                      -6.952775            8.576678             4.285436            
| 67>   H                      -7.872058            8.422140             4.431306            
| 68>   H                      -6.546244            9.659491             6.022486            
| 69>   H                      -6.779597            7.839161             6.158286            
| 70>   H                      -5.274438            8.470878             5.635149            
| 71> *
| 72> 
| 73>                          ****END OF INPUT****
================================================================================


                 $$$$$$$$$$$$$$$$$$$$$$$$$$$$$$$$$$$$$$$$$$$$$$ 
                 $ THERE ARE  3 JOBS TO BE PROCESSED THIS RUN $
                 $$$$$$$$$$$$$$$$$$$$$$$$$$$$$$$$$$$$$$$$$$$$$$ 




                 $$$$$$$$$$$$$$$$  JOB NUMBER  1 $$$$$$$$$$$$$$


                       ****************************
                       * Single Point Calculation *
                       ****************************

---------------------------------
CARTESIAN COORDINATES (ANGSTROEM)
---------------------------------
  C    -10.366333    9.400364    4.873024
  O     -9.797859    8.155894    5.312416
  H     -9.687546    8.081210    6.256478
  H     -9.800704   10.228057    5.250804
  H    -10.356732    9.413983    3.799430
  H    -11.441551    9.558626    5.335335
  C     -6.346602    8.671174    5.587876
  O     -6.952775    8.576678    4.285436
  H     -7.872058    8.422140    4.431306
  H     -6.546244    9.659491    6.022486
  H     -6.779597    7.839161    6.158286
  H     -5.274438    8.470878    5.635149

----------------------------
CARTESIAN COORDINATES (A.U.)
----------------------------
  NO LB      ZA    FRAG     MASS         X           Y           Z
   0 C     6.0000    0    12.011  -19.589530   17.764114    9.208681
   1 O     8.0000    0    15.999  -18.515270   15.412406   10.039011
   2 H     1.0000    0     1.008  -18.306809   15.271274   11.823030
   3 H     1.0000    0     1.008  -18.520646   19.328227    9.922582
   4 H     1.0000    0     1.008  -19.571387   17.789850    7.179882
   5 H     1.0000    0     1.008  -21.621398   18.063185   10.082322
   6 C     6.0000    0    12.011  -11.993340   16.386144   10.559555
   7 O     8.0000    0    15.999  -13.138841   16.207573    8.098300
   8 H     1.0000    0     1.008  -14.876034   15.915538    8.373955
   9 H     1.0000    0     1.008  -12.370608   18.253793   11.380849
  10 H     1.0000    0     1.008  -12.811582   14.813867   11.637474
  11 H     1.0000    0     1.008   -9.967243   16.007640   10.648888

--------------------------------
INTERNAL COORDINATES (ANGSTROEM)
--------------------------------
 C      0   0   0     0.000000000000     0.00000000     0.00000000
 O      1   0   0     1.436987682355     0.00000000     0.00000000
 H      2   1   0     0.953414766861   114.60652352     0.00000000
 H      1   2   3     1.071321425292   110.63374219    54.30375674
 H      1   2   3     1.073723303835   108.25118046   174.60529183
 H      1   2   3     1.181047022302   110.88598392   299.64941693
 C      3   2   1     3.457888512783    84.66185310   256.32059040
 O      7   3   2     1.439696201823    75.93162822   354.90108745
 H      8   7   3     0.943525985033   106.32662249     0.46490538
 H      7   3   2     1.097958684447    84.33907930   107.09323437
 H      7   3   2     1.097769497797    52.34744602   233.27219378
 H      7   3   2     1.091736628973   155.39289760   231.96225789

---------------------------
INTERNAL COORDINATES (A.U.)
---------------------------
 C      0   0   0     0.000000000000     0.00000000     0.00000000
 O      1   0   0     2.715513177469     0.00000000     0.00000000
 H      2   1   0     1.801692801404   114.60652352     0.00000000
 H      1   2   3     2.024504095204   110.63374219    54.30375674
 H      1   2   3     2.029042987857   108.25118046   174.60529183
 H      1   2   3     2.231855423434   110.88598392   299.64941693
 C      3   2   1     6.534462290792    84.66185310   256.32059040
 O      7   3   2     2.720631537493    75.93162822   354.90108745
 H      8   7   3     1.783005711951   106.32662249     0.46490538
 H      7   3   2     2.074841219966    84.33907930   107.09323437
 H      7   3   2     2.074483709009    52.34744602   233.27219378
 H      7   3   2     2.063083239129   155.39289760   231.96225789

---------------------
BASIS SET INFORMATION
---------------------
There are 3 groups of distinct atoms

 Group   1 Type C   : 11s6p2d1f contracted to 5s3p2d1f pattern {62111/411/11/1}
 Group   2 Type O   : 11s6p2d1f contracted to 5s3p2d1f pattern {62111/411/11/1}
 Group   3 Type H   : 5s1p contracted to 3s1p pattern {311/1}

Atom   0C    basis set group =>   1
Atom   1O    basis set group =>   2
Atom   2H    basis set group =>   3
Atom   3H    basis set group =>   3
Atom   4H    basis set group =>   3
Atom   5H    basis set group =>   3
Atom   6C    basis set group =>   1
Atom   7O    basis set group =>   2
Atom   8H    basis set group =>   3
Atom   9H    basis set group =>   3
Atom  10H    basis set group =>   3
Atom  11H    basis set group =>   3


           ************************************************************
           *        Program running with 8 parallel MPI-processes     *
           *              working on a common directory               *
           ************************************************************
------------------------------------------------------------------------------
                           ORCA GTO INTEGRAL CALCULATION
------------------------------------------------------------------------------

                         BASIS SET STATISTICS AND STARTUP INFO

 # of primitive gaussian shells          ...  128
 # of primitive gaussian functions       ...  248
 # of contracted shells                  ...   76
 # of contracted basis functions         ...  172
 Highest angular momentum                ...    3
 Maximum contraction depth               ...    6
 Integral package used                   ... LIBINT
 Integral threshhold            Thresh   ...  2.500e-11
 Primitive cut-off              TCut     ...  2.500e-12


------------------------------ INTEGRAL EVALUATION ----------------------------


 * One electron integrals 
 Pre-screening matrix                    ... done
 Shell pair data                         ... done (   0.001 sec)



           ************************************************************
           *        Program running with 8 parallel MPI-processes     *
           *              working on a common directory               *
           ************************************************************
-------------------------------------------------------------------------------
                                 ORCA SCF
-------------------------------------------------------------------------------

------------
SCF SETTINGS
------------
Hamiltonian:
 Density Functional     Method          .... DFT(GTOs)
 Exchange Functional    Exchange        .... WB97X-D3
 Correlation Functional Correlation     .... WB97X-D3
 Gradients option       PostSCFGGA      .... off
 Hybrid DFT is turned on
   Fraction HF Exchange ScalHFX         ....  0.195728
   Scaling of DF-GGA-X  ScalDFX         ....  0.000000
   Scaling of DF-GGA-C  ScalDFC         ....  1.000000
   Scaling of DF-LDA-C  ScalLDAC        ....  1.000000
   Perturbative correction              ....  0.000000
   Density functional embedding theory  .... OFF
 Long-range corrected/Screened/Range-Separated Hybrid DFT is turned on
   Amount of maximum screened exact exchange              ....  0.804272
   Range separation parameter mu (erf(mu*r12)/r12)        ....  0.250000


General Settings:
 Integral files         IntName         .... 7-186_DFT_AB
 Hartree-Fock type      HFTyp           .... RHF
 Total Charge           Charge          ....    0
 Multiplicity           Mult            ....    1
 Number of Electrons    NEL             ....   36
 Basis Dimension        Dim             ....  172
 Nuclear Repulsion      ENuc            ....    128.6480791557 Eh

Convergence Acceleration:
 DIIS                   CNVDIIS         .... on
   Start iteration      DIISMaxIt       ....    12
   Startup error        DIISStart       ....  0.200000
   # of expansion vecs  DIISMaxEq       ....     5
   Bias factor          DIISBfac        ....   1.050
   Max. coefficient     DIISMaxC        ....  10.000
 Newton-Raphson         CNVNR           .... off
 SOSCF                  CNVSOSCF        .... on
   Start iteration      SOSCFMaxIt      ....   150
   Startup grad/error   SOSCFStart      ....  0.003300
 Level Shifting         CNVShift        .... on
   Level shift para.    LevelShift      ....    0.2500
   Turn off err/grad.   ShiftErr        ....    0.0010
 Zerner damping         CNVZerner       .... off
 Static damping         CNVDamp         .... on
   Fraction old density DampFac         ....    0.7000
   Max. Damping (<1)    DampMax         ....    0.9800
   Min. Damping (>=0)   DampMin         ....    0.0000
   Turn off err/grad.   DampErr         ....    0.1000
 Fernandez-Rico         CNVRico         .... off

SCF Procedure:
 Maximum # iterations   MaxIter         ....  1000
 SCF integral mode      SCFMode         .... Direct
   Integral package                     .... LIBINT
 Reset frequency        DirectResetFreq ....    20
 Integral Threshold     Thresh          ....  2.500e-11 Eh
 Primitive CutOff       TCut            ....  2.500e-12 Eh

Convergence Tolerance:
 Convergence Check Mode ConvCheckMode   .... Total+1el-Energy
 Convergence forced     ConvForced      .... 0
 Energy Change          TolE            ....  1.000e-08 Eh
 1-El. energy change                    ....  1.000e-05 Eh
 Orbital Gradient       TolG            ....  1.000e-05
 Orbital Rotation angle TolX            ....  1.000e-05
 DIIS Error             TolErr          ....  5.000e-07


Diagonalization of the overlap matrix:
Smallest eigenvalue                        ... 1.499e-03
Time for diagonalization                   ...    0.019 sec
Threshold for overlap eigenvalues          ... 1.000e-08
Number of eigenvalues below threshold      ... 0
Time for construction of square roots      ...    0.005 sec
Total time needed                          ...    0.024 sec

-------------------
DFT GRID GENERATION
-------------------

General Integration Accuracy     IntAcc      ...  4.340
Radial Grid Type                 RadialGrid  ... Gauss-Chebyshev
Angular Grid (max. acc.)         AngularGrid ... Lebedev-110
Angular grid pruning method      GridPruning ... 3 (G Style)
Weight generation scheme         WeightScheme... Becke
Basis function cutoff            BFCut       ...    1.0000e-11
Integration weight cutoff        WCut        ...    1.0000e-14
Grids for H and He will be reduced by one unit

# of grid points (after initial pruning)     ...  13096 (   0.0 sec)
# of grid points (after weights+screening)   ...  12442 (   0.0 sec)
nearest neighbour list constructed           ...    0.0 sec
Grid point re-assignment to atoms done       ...    0.0 sec
Grid point division into batches done        ...    0.0 sec
Reduced shell lists constructed in    0.0 sec

Total number of grid points                  ...    12442
Total number of batches                      ...      201
Average number of points per batch           ...       61
Average number of grid points per atom       ...     1037
Average number of shells per batch           ...    56.48 (74.32%)
Average number of basis functions per batch  ...   126.33 (73.45%)
Average number of large shells per batch     ...    46.44 (82.23%)
Average number of large basis fcns per batch ...   102.07 (80.80%)
Maximum spatial batch extension              ...  14.84, 15.16,  8.04 au
Average spatial batch extension              ...   0.29,  0.30,  0.27 au

Time for grid setup =    0.040 sec

------------------------------
INITIAL GUESS: MODEL POTENTIAL
------------------------------
Loading Hartree-Fock densities                     ... done
Calculating cut-offs                               ... done
Setting up the integral package                    ... done
Initializing the effective Hamiltonian             ... done
Starting the Coulomb interaction                   ... done (   0.0 sec)
Reading the grid                                   ... done
Mapping shells                                     ... done
Starting the XC term evaluation                    ... done (   0.0 sec)
  promolecular density results
     # of electrons  =     36.001387458
     EX              =    -28.847956591
     EC              =     -1.152842730
     EX+EC           =    -30.000799321
Transforming the Hamiltonian                       ... done (   0.0 sec)
Diagonalizing the Hamiltonian                      ... done (   0.0 sec)
Back transforming the eigenvectors                 ... done (   0.0 sec)
Now organizing SCF variables                       ... done
                      ------------------
                      INITIAL GUESS DONE (   0.1 sec)
                      ------------------
--------------
SCF ITERATIONS
--------------
ITER       Energy         Delta-E        Max-DP      RMS-DP      [F,P]     Damp
               ***  Starting incremental Fock matrix formation  ***
  0   -231.3059590478   0.000000000000 0.03856666  0.00104708  0.2506465 0.7000
  1   -231.3757200449  -0.069760997104 0.02278973  0.00074388  0.1248447 0.7000
                               ***Turning on DIIS***
  2   -231.4077976823  -0.032077637416 0.03605502  0.00134657  0.0491936 0.0000
  3   -231.4600024525  -0.052204770181 0.01880082  0.00048646  0.0635289 0.0000
  4   -231.4685086454  -0.008506192900 0.00434938  0.00009777  0.0064819 0.0000
                      *** Initiating the SOSCF procedure ***
                           *** Shutting down DIIS ***
                      *** Re-Reading the Fockian *** 
                      *** Removing any level shift *** 
ITER      Energy       Delta-E        Grad      Rot      Max-DP    RMS-DP
  5   -231.46868839  -0.0001797441  0.000431  0.000431  0.000790  0.000035
               *** Restarting incremental Fock matrix formation ***
  6   -231.46870556  -0.0000171719  0.000158  0.000311  0.000568  0.000022
  7   -231.46870746  -0.0000019022  0.000055  0.000161  0.000294  0.000010
  8   -231.46870764  -0.0000001805  0.000021  0.000018  0.000035  0.000001
  9   -231.46870766  -0.0000000118  0.000008  0.000006  0.000014  0.000001
                  ***Gradient check signals convergence***
              ***Rediagonalizing the Fockian in SOSCF/NRSCF***

               *****************************************************
               *                     SUCCESS                       *
               *           SCF CONVERGED AFTER  10 CYCLES          *
               *****************************************************

Setting up the final grid:

General Integration Accuracy     IntAcc      ...  4.670
Radial Grid Type                 RadialGrid  ... Gauss-Chebyshev
Angular Grid (max. acc.)         AngularGrid ... Lebedev-302
Angular grid pruning method      GridPruning ... 3 (G Style)
Weight generation scheme         WeightScheme... Becke
Basis function cutoff            BFCut       ...    1.0000e-11
Integration weight cutoff        WCut        ...    1.0000e-14
Grids for H and He will be reduced by one unit

# of grid points (after initial pruning)     ...  52000 (   0.0 sec)
# of grid points (after weights+screening)   ...  48901 (   0.0 sec)
nearest neighbour list constructed           ...    0.0 sec
Grid point re-assignment to atoms done       ...    0.0 sec
Grid point division into batches done        ...    0.2 sec
Reduced shell lists constructed in    0.2 sec

Total number of grid points                  ...    48901
Total number of batches                      ...      769
Average number of points per batch           ...       63
Average number of grid points per atom       ...     4075
Average number of shells per batch           ...    54.89 (72.22%)
Average number of basis functions per batch  ...   122.05 (70.96%)
Average number of large shells per batch     ...    44.65 (81.35%)
Average number of large basis fcns per batch ...    98.45 (80.66%)
Maximum spatial batch extension              ...  12.37, 11.56, 13.06 au
Average spatial batch extension              ...   0.20,  0.18,  0.19 au

Final grid set up in    0.3 sec
Final integration                            ... done (   0.1 sec)
Change in XC energy                          ...    -0.000366497
Integrated number of electrons               ...    36.000054323
Previous integrated no of electrons          ...    36.001328141

----------------
TOTAL SCF ENERGY
----------------

Total Energy       :         -231.46907416 Eh           -6298.59372 eV

Components:
Nuclear Repulsion  :          128.64807916 Eh            3500.69221 eV
Electronic Energy  :         -360.11715331 Eh           -9799.28593 eV
One Electron Energy:         -570.07982832 Eh          -15512.66078 eV
Two Electron Energy:          209.96267501 Eh            5713.37485 eV

Virial components:
Potential Energy   :         -461.85263115 Eh          -12567.64902 eV
Kinetic Energy     :          230.38355699 Eh            6269.05530 eV
Virial Ratio       :            2.00471178


DFT components:
N(Alpha)           :       18.000027161516 electrons
N(Beta)            :       18.000027161516 electrons
N(Total)           :       36.000054323031 electrons
E(XC)              :      -21.287702299425 Eh       
DFET-embed. en.    :        0.000000000000 Eh       

---------------
SCF CONVERGENCE
---------------

  Last Energy change         ...   -2.4014e-09  Tolerance :   1.0000e-08
  Last MAX-Density change    ...    4.0304e-06  Tolerance :   1.0000e-07
  Last RMS-Density change    ...    1.4428e-07  Tolerance :   5.0000e-09
  Last Orbital Gradient      ...    1.8874e-06  Tolerance :   1.0000e-05
  Last Orbital Rotation      ...    2.2503e-06  Tolerance :   1.0000e-05

             **** THE GBW FILE WAS UPDATED (7-186_DFT_AB.gbw) ****
             **** DENSITY FILE WAS UPDATED (7-186_DFT_AB.scfp.tmp) ****
             **** ENERGY FILE WAS UPDATED (7-186_DFT_AB.en.tmp) ****
----------------
ORBITAL ENERGIES
----------------

  NO   OCC          E(Eh)            E(eV) 
   0   2.0000     -19.250909      -523.8439 
   1   2.0000     -19.208326      -522.6851 
   2   2.0000     -10.334707      -281.2217 
   3   2.0000     -10.308384      -280.5054 
   4   2.0000      -1.149763       -31.2866 
   5   2.0000      -1.114756       -30.3340 
   6   2.0000      -0.813477       -22.1358 
   7   2.0000      -0.786168       -21.3927 
   8   2.0000      -0.628964       -17.1150 
   9   2.0000      -0.592108       -16.1121 
  10   2.0000      -0.548568       -14.9273 
  11   2.0000      -0.542751       -14.7690 
  12   2.0000      -0.537169       -14.6171 
  13   2.0000      -0.518403       -14.1065 
  14   2.0000      -0.452789       -12.3210 
  15   2.0000      -0.415407       -11.3038 
  16   2.0000      -0.390394       -10.6232 
  17   2.0000      -0.361079        -9.8255 
  18   0.0000       0.093438         2.5426 
  19   0.0000       0.136262         3.7079 
  20   0.0000       0.151849         4.1320 
  21   0.0000       0.168559         4.5867 
  22   0.0000       0.186984         5.0881 
  23   0.0000       0.193237         5.2583 
  24   0.0000       0.199022         5.4157 
  25   0.0000       0.214186         5.8283 
  26   0.0000       0.241517         6.5720 
  27   0.0000       0.271872         7.3980 
  28   0.0000       0.295465         8.0400 
  29   0.0000       0.314847         8.5674 
  30   0.0000       0.328070         8.9273 
  31   0.0000       0.351332         9.5602 
  32   0.0000       0.391270        10.6470 
  33   0.0000       0.397708        10.8222 
  34   0.0000       0.433918        11.8075 
  35   0.0000       0.449992        12.2449 
  36   0.0000       0.485814        13.2197 
  37   0.0000       0.488895        13.3035 
  38   0.0000       0.515449        14.0261 
  39   0.0000       0.550273        14.9737 
  40   0.0000       0.556493        15.1429 
  41   0.0000       0.561652        15.2833 
  42   0.0000       0.565144        15.3783 
  43   0.0000       0.580736        15.8026 
  44   0.0000       0.601578        16.3698 
  45   0.0000       0.617131        16.7930 
  46   0.0000       0.658978        17.9317 
  47   0.0000       0.667600        18.1663 
  48   0.0000       0.720013        19.5926 
  49   0.0000       0.778372        21.1806 
  50   0.0000       0.792748        21.5718 
  51   0.0000       0.806405        21.9434 
  52   0.0000       0.816742        22.2247 
  53   0.0000       0.851412        23.1681 
  54   0.0000       0.874627        23.7998 
  55   0.0000       0.980515        26.6812 
  56   0.0000       0.987962        26.8838 
  57   0.0000       1.006531        27.3891 
  58   0.0000       1.012240        27.5444 
  59   0.0000       1.069253        29.0958 
  60   0.0000       1.100208        29.9382 
  61   0.0000       1.114568        30.3289 
  62   0.0000       1.399171        38.0734 
  63   0.0000       1.410345        38.3774 
  64   0.0000       1.499193        40.7951 
  65   0.0000       1.517367        41.2896 
  66   0.0000       1.545324        42.0504 
  67   0.0000       1.554893        42.3108 
  68   0.0000       1.572299        42.7844 
  69   0.0000       1.604470        43.6598 
  70   0.0000       1.620809        44.1044 
  71   0.0000       1.623705        44.1833 
  72   0.0000       1.638070        44.5742 
  73   0.0000       1.649752        44.8920 
  74   0.0000       1.659426        45.1553 
  75   0.0000       1.681108        45.7453 
  76   0.0000       1.714440        46.6523 
  77   0.0000       1.733777        47.1785 
  78   0.0000       1.790557        48.7235 
  79   0.0000       1.871956        50.9385 
  80   0.0000       1.950630        53.0793 
  81   0.0000       1.971175        53.6384 
  82   0.0000       1.997683        54.3597 
  83   0.0000       2.029843        55.2348 
  84   0.0000       2.039621        55.5009 
  85   0.0000       2.063359        56.1469 
  86   0.0000       2.081710        56.6462 
  87   0.0000       2.115219        57.5580 
  88   0.0000       2.158099        58.7249 
  89   0.0000       2.192621        59.6642 
  90   0.0000       2.246231        61.1231 
  91   0.0000       2.282784        62.1177 
  92   0.0000       2.310886        62.8824 
  93   0.0000       2.327141        63.3247 
  94   0.0000       2.342374        63.7392 
  95   0.0000       2.380978        64.7897 
  96   0.0000       2.402483        65.3749 
  97   0.0000       2.416295        65.7507 
  98   0.0000       2.430176        66.1284 
  99   0.0000       2.481590        67.5275 
 100   0.0000       2.499372        68.0114 
 101   0.0000       2.541427        69.1558 
 102   0.0000       2.581567        70.2480 
 103   0.0000       2.608658        70.9852 
 104   0.0000       2.623307        71.3838 
 105   0.0000       2.675793        72.8120 
 106   0.0000       2.691392        73.2365 
 107   0.0000       2.720512        74.0289 
 108   0.0000       2.814441        76.5848 
 109   0.0000       2.826089        76.9018 
 110   0.0000       2.866431        77.9996 
 111   0.0000       2.890932        78.6663 
 112   0.0000       2.908560        79.1459 
 113   0.0000       2.962306        80.6084 
 114   0.0000       3.031322        82.4865 
 115   0.0000       3.073866        83.6441 
 116   0.0000       3.103161        84.4413 
 117   0.0000       3.134900        85.3050 
 118   0.0000       3.153385        85.8080 
 119   0.0000       3.170717        86.2796 
 120   0.0000       3.266826        88.8949 
 121   0.0000       3.295915        89.6864 
 122   0.0000       3.384120        92.0866 
 123   0.0000       3.414777        92.9208 
 124   0.0000       3.431789        93.3837 
 125   0.0000       3.461057        94.1802 
 126   0.0000       3.479223        94.6745 
 127   0.0000       3.511333        95.5482 
 128   0.0000       3.568995        97.1173 
 129   0.0000       3.621796        98.5541 
 130   0.0000       3.628058        98.7245 
 131   0.0000       3.651236        99.3552 
 132   0.0000       3.656119        99.4881 
 133   0.0000       3.680069       100.1398 
 134   0.0000       3.961675       107.8027 
 135   0.0000       4.061672       110.5237 
 136   0.0000       4.161851       113.2497 
 137   0.0000       4.202566       114.3576 
 138   0.0000       4.277833       116.4058 
 139   0.0000       4.323530       117.6492 
 140   0.0000       4.449778       121.0846 
 141   0.0000       4.461914       121.4148 
 142   0.0000       4.582866       124.7061 
 143   0.0000       4.614084       125.5556 
 144   0.0000       5.299964       144.2193 
 145   0.0000       5.357463       145.7840 
 146   0.0000       5.368807       146.0927 
 147   0.0000       5.451496       148.3427 
 148   0.0000       5.549007       150.9961 
 149   0.0000       5.585722       151.9952 
 150   0.0000       5.759854       156.7336 
 151   0.0000       5.792801       157.6301 
 152   0.0000       5.800160       157.8304 
 153   0.0000       5.827222       158.5668 
 154   0.0000       5.913925       160.9261 
 155   0.0000       5.983370       162.8158 
 156   0.0000       6.381215       173.6417 
 157   0.0000       6.409517       174.4118 
 158   0.0000       6.532937       177.7702 
 159   0.0000       6.554968       178.3697 
 160   0.0000       6.705279       182.4599 
 161   0.0000       6.775988       184.3840 
 162   0.0000       6.791637       184.8098 
 163   0.0000       6.827776       185.7932 
 164   0.0000       7.031689       191.3420 
 165   0.0000       7.067961       192.3290 
 166   0.0000       7.211356       196.2310 
 167   0.0000       7.282478       198.1663 
 168   0.0000      22.304932       606.9481 
 169   0.0000      22.349583       608.1631 
 170   0.0000      43.661582      1188.0920 
 171   0.0000      43.753387      1190.5902 

                    ********************************
                    * MULLIKEN POPULATION ANALYSIS *
                    ********************************

-----------------------
MULLIKEN ATOMIC CHARGES
-----------------------
   0 C :   -0.184308
   1 O :   -0.512867
   2 H :    0.327919
   3 H :    0.127493
   4 H :    0.147103
   5 H :    0.109526
   6 C :   -0.183443
   7 O :   -0.476487
   8 H :    0.319144
   9 H :    0.101338
  10 H :    0.101005
  11 H :    0.123577
Sum of atomic charges:    0.0000000

--------------------------------
MULLIKEN REDUCED ORBITAL CHARGES
--------------------------------
  0 C s       :     3.240149  s :     3.240149
      pz      :     1.058904  p :     2.844144
      px      :     1.017789
      py      :     0.767451
      dz2     :     0.019761  d :     0.092669
      dxz     :     0.008636
      dyz     :     0.016871
      dx2y2   :     0.026785
      dxy     :     0.020616
      f0      :     0.001315  f :     0.007345
      f+1     :     0.000212
      f-1     :     0.000958
      f+2     :     0.000803
      f-2     :     0.000664
      f+3     :     0.001467
      f-3     :     0.001927
  1 O s       :     3.793625  s :     3.793625
      pz      :     1.369217  p :     4.689952
      px      :     1.806025
      py      :     1.514710
      dz2     :     0.012391  d :     0.027628
      dxz     :     0.001410
      dyz     :     0.003042
      dx2y2   :     0.005426
      dxy     :     0.005358
      f0      :     0.000630  f :     0.001663
      f+1     :     0.000132
      f-1     :     0.000122
      f+2     :     0.000122
      f-2     :     0.000164
      f+3     :     0.000286
      f-3     :     0.000206
  2 H s       :     0.623813  s :     0.623813
      pz      :     0.019122  p :     0.048268
      px      :     0.016526
      py      :     0.012620
  3 H s       :     0.852638  s :     0.852638
      pz      :     0.004987  p :     0.019869
      px      :     0.006330
      py      :     0.008553
  4 H s       :     0.832271  s :     0.832271
      pz      :     0.013439  p :     0.020626
      px      :     0.004049
      py      :     0.003138
  5 H s       :     0.873601  s :     0.873601
      pz      :     0.003880  p :     0.016873
      px      :     0.010483
      py      :     0.002510
  6 C s       :     3.235464  s :     3.235464
      pz      :     0.748708  p :     2.842952
      px      :     1.062353
      py      :     1.031891
      dz2     :     0.022308  d :     0.097735
      dxz     :     0.014960
      dyz     :     0.035980
      dx2y2   :     0.015440
      dxy     :     0.009046
      f0      :     0.001989  f :     0.007292
      f+1     :     0.001409
      f-1     :     0.001551
      f+2     :     0.000822
      f-2     :     0.000918
      f+3     :     0.000370
      f-3     :     0.000233
  7 O s       :     3.784128  s :     3.784128
      pz      :     1.445903  p :     4.662476
      px      :     1.328928
      py      :     1.887645
      dz2     :     0.011064  d :     0.028311
      dxz     :     0.005909
      dyz     :     0.004207
      dx2y2   :     0.005581
      dxy     :     0.001550
      f0      :     0.000198  f :     0.001572
      f+1     :     0.000304
      f-1     :     0.000156
      f+2     :     0.000228
      f-2     :     0.000064
      f+3     :     0.000413
      f-3     :     0.000209
  8 H s       :     0.627214  s :     0.627214
      pz      :     0.011380  p :     0.053642
      px      :     0.024270
      py      :     0.017992
  9 H s       :     0.879232  s :     0.879232
      pz      :     0.004413  p :     0.019430
      px      :     0.003955
      py      :     0.011061
 10 H s       :     0.879341  s :     0.879341
      pz      :     0.005556  p :     0.019654
      px      :     0.005282
      py      :     0.008816
 11 H s       :     0.856372  s :     0.856372
      pz      :     0.002787  p :     0.020051
      px      :     0.012560
      py      :     0.004703


                     *******************************
                     * LOEWDIN POPULATION ANALYSIS *
                     *******************************

----------------------
LOEWDIN ATOMIC CHARGES
----------------------
   0 C :   -0.367348
   1 O :   -0.085035
   2 H :    0.163250
   3 H :    0.093125
   4 H :    0.109427
   5 H :    0.114472
   6 C :   -0.374910
   7 O :   -0.090577
   8 H :    0.142025
   9 H :    0.093604
  10 H :    0.096651
  11 H :    0.105316

-------------------------------
LOEWDIN REDUCED ORBITAL CHARGES
-------------------------------
  0 C s       :     2.879899  s :     2.879899
      pz      :     1.085738  p :     3.047301
      px      :     1.065634
      py      :     0.895929
      dz2     :     0.088449  d :     0.387504
      dxz     :     0.026856
      dyz     :     0.056418
      dx2y2   :     0.111629
      dxy     :     0.104152
      f0      :     0.005290  f :     0.052643
      f+1     :     0.001802
      f-1     :     0.007007
      f+2     :     0.008760
      f-2     :     0.008766
      f+3     :     0.010359
      f-3     :     0.010660
  1 O s       :     3.364897  s :     3.364897
      pz      :     1.382202  p :     4.649602
      px      :     1.724249
      py      :     1.543152
      dz2     :     0.025792  d :     0.066451
      dxz     :     0.004083
      dyz     :     0.010751
      dx2y2   :     0.013254
      dxy     :     0.012570
      f0      :     0.001379  f :     0.004085
      f+1     :     0.000156
      f-1     :     0.000438
      f+2     :     0.000351
      f-2     :     0.000426
      f+3     :     0.000612
      f-3     :     0.000725
  2 H s       :     0.673261  s :     0.673261
      pz      :     0.083209  p :     0.163489
      px      :     0.045854
      py      :     0.034426
  3 H s       :     0.841988  s :     0.841988
      pz      :     0.016948  p :     0.064888
      px      :     0.020873
      py      :     0.027066
  4 H s       :     0.827032  s :     0.827032
      pz      :     0.040460  p :     0.063541
      px      :     0.013217
      py      :     0.009864
  5 H s       :     0.837727  s :     0.837727
      pz      :     0.011764  p :     0.047801
      px      :     0.029075
      py      :     0.006962
  6 C s       :     2.871220  s :     2.871220
      pz      :     0.878622  p :     3.057526
      px      :     1.086245
      py      :     1.092659
      dz2     :     0.103603  d :     0.393632
      dxz     :     0.067509
      dyz     :     0.131297
      dx2y2   :     0.068250
      dxy     :     0.022973
      f0      :     0.013148  f :     0.052531
      f+1     :     0.012151
      f-1     :     0.008519
      f+2     :     0.004479
      f-2     :     0.009680
      f+3     :     0.002338
      f-3     :     0.002215
  7 O s       :     3.367463  s :     3.367463
      pz      :     1.515653  p :     4.653497
      px      :     1.344618
      py      :     1.793226
      dz2     :     0.024704  d :     0.065335
      dxz     :     0.014139
      dyz     :     0.010531
      dx2y2   :     0.012629
      dxy     :     0.003331
      f0      :     0.001037  f :     0.004282
      f+1     :     0.001021
      f-1     :     0.000590
      f+2     :     0.000480
      f-2     :     0.000291
      f+3     :     0.000653
      f-3     :     0.000211
  8 H s       :     0.682401  s :     0.682401
      pz      :     0.037130  p :     0.175574
      px      :     0.086411
      py      :     0.052033
  9 H s       :     0.846776  s :     0.846776
      pz      :     0.013422  p :     0.059620
      px      :     0.013440
      py      :     0.032758
 10 H s       :     0.843471  s :     0.843471
      pz      :     0.016651  p :     0.059879
      px      :     0.016796
      py      :     0.026432
 11 H s       :     0.834079  s :     0.834079
      pz      :     0.008899  p :     0.060605
      px      :     0.037256
      py      :     0.014451


                      *****************************
                      * MAYER POPULATION ANALYSIS *
                      *****************************

  NA   - Mulliken gross atomic population
  ZA   - Total nuclear charge
  QA   - Mulliken gross atomic charge
  VA   - Mayer's total valence
  BVA  - Mayer's bonded valence
  FA   - Mayer's free valence

  ATOM       NA         ZA         QA         VA         BVA        FA
  0 C      6.1843     6.0000    -0.1843     3.8889     3.8889     0.0000
  1 O      8.5129     8.0000    -0.5129     1.8786     1.8786     0.0000
  2 H      0.6721     1.0000     0.3279     0.9065     0.9065     0.0000
  3 H      0.8725     1.0000     0.1275     0.9509     0.9509     0.0000
  4 H      0.8529     1.0000     0.1471     0.9596     0.9596     0.0000
  5 H      0.8905     1.0000     0.1095     0.9662     0.9662    -0.0000
  6 C      6.1834     6.0000    -0.1834     3.9532     3.9532    -0.0000
  7 O      8.4765     8.0000    -0.4765     1.8734     1.8734     0.0000
  8 H      0.6809     1.0000     0.3191     0.9349     0.9349    -0.0000
  9 H      0.8987     1.0000     0.1013     0.9535     0.9535    -0.0000
 10 H      0.8990     1.0000     0.1010     0.9656     0.9656    -0.0000
 11 H      0.8764     1.0000     0.1236     0.9606     0.9606    -0.0000

  Mayer bond orders larger than 0.1
B(  0-C ,  1-O ) :   0.9475 B(  0-C ,  3-H ) :   0.9716 B(  0-C ,  4-H ) :   0.9718 
B(  0-C ,  5-H ) :   0.9690 B(  1-O ,  2-H ) :   0.8874 B(  6-C ,  7-O ) :   0.9948 
B(  6-C ,  9-H ) :   0.9713 B(  6-C , 10-H ) :   0.9905 B(  6-C , 11-H ) :   0.9722 
B(  7-O ,  8-H ) :   0.8896 

-------
TIMINGS
-------

Total SCF time: 0 days 0 hours 0 min 20 sec 

Total time                  ....      20.480 sec
Sum of individual times     ....      20.109 sec  ( 98.2%)

Fock matrix formation       ....      19.395 sec  ( 94.7%)
  XC integration            ....       9.681 sec  ( 49.9% of F)
    Basis function eval.    ....       0.060 sec  (  0.6% of XC)
    Density eval.           ....       0.084 sec  (  0.9% of XC)
    XC-Functional eval.     ....       0.107 sec  (  1.1% of XC)
    XC-Potential eval.      ....       0.071 sec  (  0.7% of XC)
Diagonalization             ....       0.189 sec  (  0.9%)
Density matrix formation    ....       0.006 sec  (  0.0%)
Population analysis         ....       0.032 sec  (  0.2%)
Initial guess               ....       0.094 sec  (  0.5%)
Orbital Transformation      ....       0.000 sec  (  0.0%)
Orbital Orthonormalization  ....       0.000 sec  (  0.0%)
DIIS solution               ....       0.050 sec  (  0.2%)
SOSCF solution              ....       0.032 sec  (  0.2%)
Grid generation             ....       0.309 sec  (  1.5%)


-------------------------------------------------------------------------------
                          DFT DISPERSION CORRECTION                            
                                                                               
                              DFTD3 V3.1  Rev 1                                
                              USING zero damping                               
-------------------------------------------------------------------------------
The omegaB97X-D3 functional is recognized. Fit by Chai et al.
Active option DFTDOPT                   ...         3   

molecular C6(AA) [au] = 835.324064 


            DFT-D V3
 parameters
 s6 scaling factor         :     1.0000 
 rs6 scaling factor        :     1.2810 
 s8 scaling factor         :     1.0000 
 rs8 scaling factor        :     1.0940 
 Damping factor alpha6     :    14.0000 
 Damping factor alpha8     :    16.0000 
 ad hoc parameters k1-k3   :    16.0000     1.3333    -4.0000 

 Edisp/kcal,au: -1.343503849178  -0.002141009437 
 E6   /kcal   :  -0.595620643 
 E8   /kcal   :  -0.747883207 
 % E8         :  55.666621799 

-------------------------   ----------------
Dispersion correction           -0.002141009
-------------------------   ----------------


-------------------------   --------------------
FINAL SINGLE POINT ENERGY      -231.471215164549
-------------------------   --------------------


                            ***************************************
                            *     ORCA property calculations      *
                            ***************************************

                                    ---------------------
                                    Active property flags
                                    ---------------------
   (+) Dipole Moment


------------------------------------------------------------------------------
                       ORCA ELECTRIC PROPERTIES CALCULATION
------------------------------------------------------------------------------

Dipole Moment Calculation                       ... on
Quadrupole Moment Calculation                   ... off
Polarizability Calculation                      ... off
GBWName                                         ... 7-186_DFT_AB.gbw
Electron density file                           ... 7-186_DFT_AB.scfp.tmp
The origin for moment calculation is the CENTER OF MASS  = (-15.836184, 16.425218  9.508029)

-------------
DIPOLE MOMENT
-------------
                                X             Y             Z
Electronic contribution:      0.02556      -1.58321      -1.42481
Nuclear contribution   :     -0.67317       1.99688       2.46786
                        -----------------------------------------
Total Dipole Moment    :     -0.64762       0.41367       1.04305
                        -----------------------------------------
Magnitude (a.u.)       :      1.29556
Magnitude (Debye)      :      3.29306



--------------------
Rotational spectrum 
--------------------
 
Rotational constants in cm-1:     0.468489     0.080416     0.077225 
Rotational constants in MHz : 14044.960266  2410.820021  2315.133114 

 Dipole components along the rotational axes: 
x,y,z [a.u.] :    -0.683020    -0.742103     0.813171 
x,y,z [Debye]:    -1.736099    -1.886277     2.066918 

 
------------------------------------------------------------------------------
                      ORCA CHELPG CHARGES GENERATION
------------------------------------------------------------------------------

GBW file                           ... 7-186_DFT_AB.gbw

Reading the GBW file               ... done

Grid spacing                       ...     0.300000
Point Cut-Off                      ...     2.800000
Van-der-Waals Radii                ...        COSMO
Total charge                       ...            0


Number of points X direction       ...           39
Number of points Y direction       ...           26
Number of points Z direction       ...           26
Maximum number of possible points  ...        26364
Final number of points             ...         9570


CHELPG Charges            
--------------------------------
  0   C   :      -0.094862
  1   O   :      -0.567920
  2   H   :       0.412293
  3   H   :       0.077428
  4   H   :       0.134778
  5   H   :       0.064933
  6   C   :       0.056590
  7   O   :      -0.612933
  8   H   :       0.414139
  9   H   :       0.027055
 10   H   :       0.001215
 11   H   :       0.087283
--------------------------------
Total charge:    -0.000000
--------------------------------

CHELPG charges calculated...

Timings for individual parts in CHELPG calculation:
Grid generation                 ...        0.001 sec (=   0.000 min)
Potential calculation           ...        2.145 sec (=   0.036 min)
Fit to the potential            ...        0.003 sec (=   0.000 min)
------------------------------------------------------------------------------


Timings for individual modules:

Sum of individual times         ...       29.636 sec (=   0.494 min)
GTO integral calculation        ...        5.235 sec (=   0.087 min)  17.7 %
SCF iterations                  ...       22.208 sec (=   0.370 min)  74.9 %
CHELPG charge generation        ...        2.193 sec (=   0.037 min)   7.4 %


                 $$$$$$$$$$$$$$$$  JOB NUMBER  2 $$$$$$$$$$$$$$


                       ****************************
                       * Single Point Calculation *
                       ****************************

---------------------------------
CARTESIAN COORDINATES (ANGSTROEM)
---------------------------------
  C    -10.366333    9.400364    4.873024
  O     -9.797859    8.155894    5.312416
  H     -9.687546    8.081210    6.256478
  H     -9.800704   10.228057    5.250804
  H    -10.356732    9.413983    3.799430
  H    -11.441551    9.558626    5.335335
  C     -6.346602    8.671174    5.587876
  O     -6.952775    8.576678    4.285436
  H     -7.872058    8.422140    4.431306
  H     -6.546244    9.659491    6.022486
  H     -6.779597    7.839161    6.158286
  H     -5.274438    8.470878    5.635149

----------------------------
CARTESIAN COORDINATES (A.U.)
----------------------------
  NO LB      ZA    FRAG     MASS         X           Y           Z
   0 C     6.0000    0    12.011  -19.589530   17.764114    9.208681
   1 O     8.0000    0    15.999  -18.515270   15.412406   10.039011
   2 H     1.0000    0     1.008  -18.306809   15.271274   11.823030
   3 H     1.0000    0     1.008  -18.520646   19.328227    9.922582
   4 H     1.0000    0     1.008  -19.571387   17.789850    7.179882
   5 H     1.0000    0     1.008  -21.621398   18.063185   10.082322
   6 C     0.0000    0     0.000  -11.993340   16.386144   10.559555
   7 O     0.0000    0     0.000  -13.138841   16.207573    8.098300
   8 H     0.0000    0     0.000  -14.876034   15.915538    8.373955
   9 H     0.0000    0     0.000  -12.370608   18.253793   11.380849
  10 H     0.0000    0     0.000  -12.811582   14.813867   11.637474
  11 H     0.0000    0     0.000   -9.967243   16.007640   10.648888

--------------------------------
INTERNAL COORDINATES (ANGSTROEM)
--------------------------------
 C      0   0   0     0.000000000000     0.00000000     0.00000000
 O      1   0   0     1.436987682355     0.00000000     0.00000000
 H      2   1   0     0.953414766861   114.60652352     0.00000000
 H      1   2   3     1.071321425292   110.63374219    54.30375674
 H      1   2   3     1.073723303835   108.25118046   174.60529183
 H      1   2   3     1.181047022302   110.88598392   299.64941693
 C      3   2   1     3.457888512783    84.66185310   256.32059040
 O      7   3   2     1.439696201823    75.93162822   354.90108745
 H      8   7   3     0.943525985033   106.32662249     0.46490538
 H      7   3   2     1.097958684447    84.33907930   107.09323437
 H      7   3   2     1.097769497797    52.34744602   233.27219378
 H      7   3   2     1.091736628973   155.39289760   231.96225789

---------------------------
INTERNAL COORDINATES (A.U.)
---------------------------
 C      0   0   0     0.000000000000     0.00000000     0.00000000
 O      1   0   0     2.715513177469     0.00000000     0.00000000
 H      2   1   0     1.801692801404   114.60652352     0.00000000
 H      1   2   3     2.024504095204   110.63374219    54.30375674
 H      1   2   3     2.029042987857   108.25118046   174.60529183
 H      1   2   3     2.231855423434   110.88598392   299.64941693
 C      3   2   1     6.534462290792    84.66185310   256.32059040
 O      7   3   2     2.720631537493    75.93162822   354.90108745
 H      8   7   3     1.783005711951   106.32662249     0.46490538
 H      7   3   2     2.074841219966    84.33907930   107.09323437
 H      7   3   2     2.074483709009    52.34744602   233.27219378
 H      7   3   2     2.063083239129   155.39289760   231.96225789

---------------------
BASIS SET INFORMATION
---------------------
There are 3 groups of distinct atoms

 Group   1 Type C   : 11s6p2d1f contracted to 5s3p2d1f pattern {62111/411/11/1}
 Group   2 Type O   : 11s6p2d1f contracted to 5s3p2d1f pattern {62111/411/11/1}
 Group   3 Type H   : 5s1p contracted to 3s1p pattern {311/1}

Atom   0C    basis set group =>   1
Atom   1O    basis set group =>   2
Atom   2H    basis set group =>   3
Atom   3H    basis set group =>   3
Atom   4H    basis set group =>   3
Atom   5H    basis set group =>   3
Atom   6C    basis set group =>   1
Atom   7O    basis set group =>   2
Atom   8H    basis set group =>   3
Atom   9H    basis set group =>   3
Atom  10H    basis set group =>   3
Atom  11H    basis set group =>   3


           ************************************************************
           *        Program running with 8 parallel MPI-processes     *
           *              working on a common directory               *
           ************************************************************
------------------------------------------------------------------------------
                           ORCA GTO INTEGRAL CALCULATION
------------------------------------------------------------------------------

                         BASIS SET STATISTICS AND STARTUP INFO

 # of primitive gaussian shells          ...  128
 # of primitive gaussian functions       ...  248
 # of contracted shells                  ...   76
 # of contracted basis functions         ...  172
 Highest angular momentum                ...    3
 Maximum contraction depth               ...    6
 Integral package used                   ... LIBINT
 Integral threshhold            Thresh   ...  2.500e-11
 Primitive cut-off              TCut     ...  2.500e-12


------------------------------ INTEGRAL EVALUATION ----------------------------


 * One electron integrals 
 Pre-screening matrix                    ... done
 Shell pair data                         ... done (   0.001 sec)



           ************************************************************
           *        Program running with 8 parallel MPI-processes     *
           *              working on a common directory               *
           ************************************************************
-------------------------------------------------------------------------------
                                 ORCA SCF
-------------------------------------------------------------------------------

------------
SCF SETTINGS
------------
Hamiltonian:
 Density Functional     Method          .... DFT(GTOs)
 Exchange Functional    Exchange        .... WB97X-D3
 Correlation Functional Correlation     .... WB97X-D3
 Gradients option       PostSCFGGA      .... off
 Hybrid DFT is turned on
   Fraction HF Exchange ScalHFX         ....  0.195728
   Scaling of DF-GGA-X  ScalDFX         ....  0.000000
   Scaling of DF-GGA-C  ScalDFC         ....  1.000000
   Scaling of DF-LDA-C  ScalLDAC        ....  1.000000
   Perturbative correction              ....  0.000000
   Density functional embedding theory  .... OFF
 Long-range corrected/Screened/Range-Separated Hybrid DFT is turned on
   Amount of maximum screened exact exchange              ....  0.804272
   Range separation parameter mu (erf(mu*r12)/r12)        ....  0.250000


General Settings:
 Integral files         IntName         .... 7-186_DFT_A
 Hartree-Fock type      HFTyp           .... RHF
 Total Charge           Charge          ....    0
 Multiplicity           Mult            ....    1
 Number of Electrons    NEL             ....   18
 Basis Dimension        Dim             ....  172
 Nuclear Repulsion      ENuc            ....     39.8631357478 Eh

Convergence Acceleration:
 DIIS                   CNVDIIS         .... on
   Start iteration      DIISMaxIt       ....    12
   Startup error        DIISStart       ....  0.200000
   # of expansion vecs  DIISMaxEq       ....     5
   Bias factor          DIISBfac        ....   1.050
   Max. coefficient     DIISMaxC        ....  10.000
 Newton-Raphson         CNVNR           .... off
 SOSCF                  CNVSOSCF        .... on
   Start iteration      SOSCFMaxIt      ....   150
   Startup grad/error   SOSCFStart      ....  0.003300
 Level Shifting         CNVShift        .... on
   Level shift para.    LevelShift      ....    0.2500
   Turn off err/grad.   ShiftErr        ....    0.0010
 Zerner damping         CNVZerner       .... off
 Static damping         CNVDamp         .... on
   Fraction old density DampFac         ....    0.7000
   Max. Damping (<1)    DampMax         ....    0.9800
   Min. Damping (>=0)   DampMin         ....    0.0000
   Turn off err/grad.   DampErr         ....    0.1000
 Fernandez-Rico         CNVRico         .... off

SCF Procedure:
 Maximum # iterations   MaxIter         ....  1000
 SCF integral mode      SCFMode         .... Direct
   Integral package                     .... LIBINT
 Reset frequency        DirectResetFreq ....    20
 Integral Threshold     Thresh          ....  2.500e-11 Eh
 Primitive CutOff       TCut            ....  2.500e-12 Eh

Convergence Tolerance:
 Convergence Check Mode ConvCheckMode   .... Total+1el-Energy
 Convergence forced     ConvForced      .... 0
 Energy Change          TolE            ....  1.000e-08 Eh
 1-El. energy change                    ....  1.000e-05 Eh
 Orbital Gradient       TolG            ....  1.000e-05
 Orbital Rotation angle TolX            ....  1.000e-05
 DIIS Error             TolErr          ....  5.000e-07


Diagonalization of the overlap matrix:
Smallest eigenvalue                        ... 1.499e-03
Time for diagonalization                   ...    0.004 sec
Threshold for overlap eigenvalues          ... 1.000e-08
Number of eigenvalues below threshold      ... 0
Time for construction of square roots      ...    0.006 sec
Total time needed                          ...    0.010 sec

-------------------
DFT GRID GENERATION
-------------------

General Integration Accuracy     IntAcc      ...  4.340
Radial Grid Type                 RadialGrid  ... Gauss-Chebyshev
Angular Grid (max. acc.)         AngularGrid ... Lebedev-110
Angular grid pruning method      GridPruning ... 3 (G Style)
Weight generation scheme         WeightScheme... Becke
Basis function cutoff            BFCut       ...    1.0000e-11
Integration weight cutoff        WCut        ...    1.0000e-14
Grids for H and He will be reduced by one unit

# of grid points (after initial pruning)     ...  13096 (   0.0 sec)
# of grid points (after weights+screening)   ...  12442 (   0.0 sec)
nearest neighbour list constructed           ...    0.0 sec
Grid point re-assignment to atoms done       ...    0.0 sec
Grid point division into batches done        ...    0.0 sec
Reduced shell lists constructed in    0.0 sec

Total number of grid points                  ...    12442
Total number of batches                      ...      201
Average number of points per batch           ...       61
Average number of grid points per atom       ...     1037
Average number of shells per batch           ...    56.48 (74.32%)
Average number of basis functions per batch  ...   126.33 (73.45%)
Average number of large shells per batch     ...    46.44 (82.23%)
Average number of large basis fcns per batch ...   102.07 (80.80%)
Maximum spatial batch extension              ...  14.84, 15.16,  8.04 au
Average spatial batch extension              ...   0.29,  0.30,  0.27 au

Time for grid setup =    0.039 sec

------------------------------
INITIAL GUESS: MODEL POTENTIAL
------------------------------
Loading Hartree-Fock densities                     ... done
Calculating cut-offs                               ... done
Setting up the integral package                    ... done
Initializing the effective Hamiltonian             ... done
Starting the Coulomb interaction                   ... done (   0.0 sec)
Reading the grid                                   ... done
Mapping shells                                     ... done
Starting the XC term evaluation                    ... done (   0.0 sec)
  promolecular density results
     # of electrons  =     17.997283349
     EX              =    -14.415652709
     EC              =     -0.572702442
     EX+EC           =    -14.988355150
Transforming the Hamiltonian                       ... done (   0.0 sec)
Diagonalizing the Hamiltonian                      ... done (   0.0 sec)
Back transforming the eigenvectors                 ... done (   0.0 sec)
Now organizing SCF variables                       ... done
                      ------------------
                      INITIAL GUESS DONE (   0.1 sec)
                      ------------------
--------------
SCF ITERATIONS
--------------
ITER       Energy         Delta-E        Max-DP      RMS-DP      [F,P]     Damp
               ***  Starting incremental Fock matrix formation  ***
  0   -115.6454225529   0.000000000000 0.03689947  0.00075037  0.2557387 0.7000
  1   -115.6823952618  -0.036972708879 0.02172695  0.00052860  0.1274657 0.7000
                               ***Turning on DIIS***
  2   -115.6991580946  -0.016762832748 0.03190811  0.00094332  0.0501520 0.0000
  3   -115.7263584856  -0.027200391022 0.01779545  0.00034777  0.0610724 0.0000
  4   -115.7309302129  -0.004571727333 0.00412078  0.00006965  0.0062173 0.0000
                      *** Initiating the SOSCF procedure ***
                           *** Shutting down DIIS ***
                      *** Re-Reading the Fockian *** 
                      *** Removing any level shift *** 
ITER      Energy       Delta-E        Grad      Rot      Max-DP    RMS-DP
  5   -115.73102555  -0.0000953373  0.000432  0.000432  0.000698  0.000023
               *** Restarting incremental Fock matrix formation ***
  6   -115.73103401  -0.0000084635  0.000123  0.000172  0.000526  0.000014
  7   -115.73103489  -0.0000008740  0.000045  0.000092  0.000242  0.000006
  8   -115.73103497  -0.0000000795  0.000013  0.000012  0.000025  0.000001
  9   -115.73103497  -0.0000000038  0.000009  0.000006  0.000011  0.000000
                  ***Gradient check signals convergence***
              ***Rediagonalizing the Fockian in SOSCF/NRSCF***

               *****************************************************
               *                     SUCCESS                       *
               *           SCF CONVERGED AFTER  10 CYCLES          *
               *****************************************************

Setting up the final grid:

General Integration Accuracy     IntAcc      ...  4.670
Radial Grid Type                 RadialGrid  ... Gauss-Chebyshev
Angular Grid (max. acc.)         AngularGrid ... Lebedev-302
Angular grid pruning method      GridPruning ... 3 (G Style)
Weight generation scheme         WeightScheme... Becke
Basis function cutoff            BFCut       ...    1.0000e-11
Integration weight cutoff        WCut        ...    1.0000e-14
Grids for H and He will be reduced by one unit

# of grid points (after initial pruning)     ...  52000 (   0.0 sec)
# of grid points (after weights+screening)   ...  48901 (   0.0 sec)
nearest neighbour list constructed           ...    0.0 sec
Grid point re-assignment to atoms done       ...    0.0 sec
Grid point division into batches done        ...    0.2 sec
Reduced shell lists constructed in    0.2 sec

Total number of grid points                  ...    48901
Total number of batches                      ...      769
Average number of points per batch           ...       63
Average number of grid points per atom       ...     4075
Average number of shells per batch           ...    54.89 (72.22%)
Average number of basis functions per batch  ...   122.05 (70.96%)
Average number of large shells per batch     ...    44.65 (81.35%)
Average number of large basis fcns per batch ...    98.45 (80.66%)
Maximum spatial batch extension              ...  12.37, 11.56, 13.06 au
Average spatial batch extension              ...   0.20,  0.18,  0.19 au

Final grid set up in    0.3 sec
Final integration                            ... done (   0.1 sec)
Change in XC energy                          ...    -0.000052052
Integrated number of electrons               ...    17.999996720
Previous integrated no of electrons          ...    17.998668168

----------------
TOTAL SCF ENERGY
----------------

Total Energy       :         -115.73108702 Eh           -3149.20298 eV

Components:
Nuclear Repulsion  :           39.86313575 Eh            1084.73107 eV
Electronic Energy  :         -155.59422277 Eh           -4233.93405 eV
One Electron Energy:         -236.17645742 Eh           -6426.68813 eV
Two Electron Energy:           80.58223464 Eh            2192.75408 eV

Virial components:
Potential Energy   :         -230.88382695 Eh           -6282.66834 eV
Kinetic Energy     :          115.15273992 Eh            3133.46536 eV
Virial Ratio       :            2.00502243


DFT components:
N(Alpha)           :        8.999998360153 electrons
N(Beta)            :        8.999998360153 electrons
N(Total)           :       17.999996720307 electrons
E(XC)              :      -10.633865971616 Eh       
DFET-embed. en.    :        0.000000000000 Eh       

---------------
SCF CONVERGENCE
---------------

  Last Energy change         ...   -1.7525e-09  Tolerance :   1.0000e-08
  Last MAX-Density change    ...    2.7315e-06  Tolerance :   1.0000e-07
  Last RMS-Density change    ...    9.2670e-08  Tolerance :   5.0000e-09
  Last Orbital Gradient      ...    1.9156e-06  Tolerance :   1.0000e-05
  Last Orbital Rotation      ...    2.1431e-06  Tolerance :   1.0000e-05

             **** THE GBW FILE WAS UPDATED (7-186_DFT_A.gbw) ****
             **** DENSITY FILE WAS UPDATED (7-186_DFT_A.scfp.tmp) ****
             **** ENERGY FILE WAS UPDATED (7-186_DFT_A.en.tmp) ****
----------------
ORBITAL ENERGIES
----------------

  NO   OCC          E(Eh)            E(eV) 
   0   2.0000     -19.227858      -523.2166 
   1   2.0000     -10.321353      -280.8583 
   2   2.0000      -1.127020       -30.6678 
   3   2.0000      -0.797943       -21.7131 
   4   2.0000      -0.609987       -16.5986 
   5   2.0000      -0.533309       -14.5121 
   6   2.0000      -0.527013       -14.3408 
   7   2.0000      -0.432216       -11.7612 
   8   2.0000      -0.370751       -10.0886 
   9   0.0000       0.089798         2.4435 
  10   0.0000       0.131877         3.5886 
  11   0.0000       0.146293         3.9808 
  12   0.0000       0.180441         4.9100 
  13   0.0000       0.186797         5.0830 
  14   0.0000       0.203197         5.5293 
  15   0.0000       0.217073         5.9069 
  16   0.0000       0.231935         6.3113 
  17   0.0000       0.243903         6.6369 
  18   0.0000       0.301937         8.2161 
  19   0.0000       0.308135         8.3848 
  20   0.0000       0.331358         9.0167 
  21   0.0000       0.333338         9.0706 
  22   0.0000       0.356241         9.6938 
  23   0.0000       0.390164        10.6169 
  24   0.0000       0.417857        11.3705 
  25   0.0000       0.447260        12.1706 
  26   0.0000       0.472379        12.8541 
  27   0.0000       0.501660        13.6509 
  28   0.0000       0.511993        13.9320 
  29   0.0000       0.546384        14.8679 
  30   0.0000       0.570787        15.5319 
  31   0.0000       0.580303        15.7909 
  32   0.0000       0.603814        16.4306 
  33   0.0000       0.631756        17.1909 
  34   0.0000       0.653868        17.7927 
  35   0.0000       0.670569        18.2471 
  36   0.0000       0.735917        20.0253 
  37   0.0000       0.743684        20.2367 
  38   0.0000       0.791390        21.5348 
  39   0.0000       0.803709        21.8700 
  40   0.0000       0.829351        22.5678 
  41   0.0000       0.844099        22.9691 
  42   0.0000       0.868486        23.6327 
  43   0.0000       0.981661        26.7124 
  44   0.0000       1.006988        27.4015 
  45   0.0000       1.049523        28.5590 
  46   0.0000       1.078682        29.3524 
  47   0.0000       1.111767        30.2527 
  48   0.0000       1.151475        31.3332 
  49   0.0000       1.177971        32.0542 
  50   0.0000       1.212225        32.9863 
  51   0.0000       1.225832        33.3566 
  52   0.0000       1.256166        34.1820 
  53   0.0000       1.371101        37.3096 
  54   0.0000       1.401040        38.1242 
  55   0.0000       1.453090        39.5406 
  56   0.0000       1.476131        40.1676 
  57   0.0000       1.528549        41.5939 
  58   0.0000       1.561382        42.4874 
  59   0.0000       1.580360        43.0038 
  60   0.0000       1.594913        43.3998 
  61   0.0000       1.632787        44.4304 
  62   0.0000       1.649881        44.8955 
  63   0.0000       1.676452        45.6186 
  64   0.0000       1.701084        46.2888 
  65   0.0000       1.781102        48.4662 
  66   0.0000       1.841952        50.1221 
  67   0.0000       1.934412        52.6380 
  68   0.0000       1.976606        53.7862 
  69   0.0000       1.980484        53.8917 
  70   0.0000       2.010604        54.7113 
  71   0.0000       2.057536        55.9884 
  72   0.0000       2.098231        57.0958 
  73   0.0000       2.106920        57.3322 
  74   0.0000       2.163201        58.8637 
  75   0.0000       2.212321        60.2003 
  76   0.0000       2.223505        60.5046 
  77   0.0000       2.267036        61.6892 
  78   0.0000       2.282278        62.1039 
  79   0.0000       2.325092        63.2690 
  80   0.0000       2.344098        63.7861 
  81   0.0000       2.357352        64.1468 
  82   0.0000       2.405382        65.4538 
  83   0.0000       2.444599        66.5209 
  84   0.0000       2.502090        68.0853 
  85   0.0000       2.522398        68.6379 
  86   0.0000       2.608475        70.9802 
  87   0.0000       2.620306        71.3022 
  88   0.0000       2.628006        71.5117 
  89   0.0000       2.685103        73.0654 
  90   0.0000       2.704808        73.6016 
  91   0.0000       2.714818        73.8740 
  92   0.0000       2.830537        77.0228 
  93   0.0000       2.855564        77.7038 
  94   0.0000       2.895392        78.7876 
  95   0.0000       2.923618        79.5557 
  96   0.0000       2.942234        80.0623 
  97   0.0000       3.033085        82.5344 
  98   0.0000       3.067336        83.4664 
  99   0.0000       3.117245        84.8246 
 100   0.0000       3.140811        85.4658 
 101   0.0000       3.173553        86.3568 
 102   0.0000       3.197018        86.9953 
 103   0.0000       3.252662        88.5094 
 104   0.0000       3.288894        89.4954 
 105   0.0000       3.329365        90.5966 
 106   0.0000       3.370864        91.7259 
 107   0.0000       3.396373        92.4200 
 108   0.0000       3.413526        92.8868 
 109   0.0000       3.452857        93.9570 
 110   0.0000       3.497689        95.1770 
 111   0.0000       3.586411        97.5912 
 112   0.0000       3.594671        97.8160 
 113   0.0000       3.644884        99.1823 
 114   0.0000       3.670860        99.8892 
 115   0.0000       3.689783       100.4041 
 116   0.0000       3.739651       101.7611 
 117   0.0000       3.980141       108.3052 
 118   0.0000       4.116163       112.0065 
 119   0.0000       4.174304       113.5886 
 120   0.0000       4.182953       113.8239 
 121   0.0000       4.244398       115.4959 
 122   0.0000       4.284846       116.5966 
 123   0.0000       4.296279       116.9077 
 124   0.0000       4.351075       118.3988 
 125   0.0000       4.469246       121.6144 
 126   0.0000       4.541104       123.5697 
 127   0.0000       4.567327       124.2833 
 128   0.0000       4.577281       124.5541 
 129   0.0000       4.600632       125.1896 
 130   0.0000       4.634451       126.1098 
 131   0.0000       5.024873       136.7337 
 132   0.0000       5.072588       138.0321 
 133   0.0000       5.150425       140.1502 
 134   0.0000       5.325050       144.9020 
 135   0.0000       5.380549       146.4122 
 136   0.0000       5.404222       147.0563 
 137   0.0000       5.491078       149.4198 
 138   0.0000       5.573381       151.6594 
 139   0.0000       5.783201       157.3689 
 140   0.0000       5.793326       157.6444 
 141   0.0000       5.848355       159.1418 
 142   0.0000       5.912365       160.8836 
 143   0.0000       5.936047       161.5281 
 144   0.0000       6.067334       165.1006 
 145   0.0000       6.408933       174.3959 
 146   0.0000       6.541599       178.0060 
 147   0.0000       6.622827       180.2163 
 148   0.0000       6.718972       182.8325 
 149   0.0000       6.729638       183.1228 
 150   0.0000       6.806152       185.2048 
 151   0.0000       6.875037       187.0793 
 152   0.0000       7.056143       192.0074 
 153   0.0000       7.072476       192.4519 
 154   0.0000       7.210854       196.2173 
 155   0.0000       7.235831       196.8970 
 156   0.0000       7.409283       201.6168 
 157   0.0000       8.205452       223.2817 
 158   0.0000       8.918181       242.6760 
 159   0.0000       9.360700       254.7176 
 160   0.0000       9.574615       260.5385 
 161   0.0000       9.627428       261.9756 
 162   0.0000       9.807180       266.8669 
 163   0.0000       9.895737       269.2767 
 164   0.0000       9.946278       270.6520 
 165   0.0000      10.114647       275.2335 
 166   0.0000      11.129724       302.8552 
[...]
  82   0.0000       2.423403        65.9441 
  83   0.0000       2.454236        66.7832 
  84   0.0000       2.505358        68.1742 
  85   0.0000       2.526359        68.7457 
  86   0.0000       2.557183        69.5845 
  87   0.0000       2.560579        69.6769 
  88   0.0000       2.614550        71.1455 
  89   0.0000       2.639621        71.8277 
  90   0.0000       2.668088        72.6024 
  91   0.0000       2.691775        73.2469 
  92   0.0000       2.819381        76.7193 
  93   0.0000       2.862338        77.8882 
  94   0.0000       2.876342        78.2693 
  95   0.0000       2.895051        78.7783 
  96   0.0000       2.972611        80.8889 
  97   0.0000       3.016228        82.0757 
  98   0.0000       3.046803        82.9077 
  99   0.0000       3.059038        83.2407 
 100   0.0000       3.101930        84.4078 
 101   0.0000       3.150595        85.7320 
 102   0.0000       3.170636        86.2774 
 103   0.0000       3.231639        87.9374 
 104   0.0000       3.285554        89.4045 
 105   0.0000       3.320503        90.3555 
 106   0.0000       3.354976        91.2935 
 107   0.0000       3.405782        92.6760 
 108   0.0000       3.451076        93.9085 
 109   0.0000       3.475923        94.5847 
 110   0.0000       3.499476        95.2256 
 111   0.0000       3.572937        97.2246 
 112   0.0000       3.616268        98.4037 
 113   0.0000       3.639969        99.0486 
 114   0.0000       3.656405        99.4959 
 115   0.0000       3.670342        99.8751 
 116   0.0000       3.737185       101.6940 
 117   0.0000       4.034675       109.7891 
 118   0.0000       4.071998       110.8047 
 119   0.0000       4.145141       112.7950 
 120   0.0000       4.191535       114.0575 
 121   0.0000       4.237162       115.2990 
 122   0.0000       4.278363       116.4202 
 123   0.0000       4.316949       117.4702 
 124   0.0000       4.336205       117.9941 
 125   0.0000       4.442772       120.8940 
 126   0.0000       4.518441       122.9530 
 127   0.0000       4.545322       123.6845 
 128   0.0000       4.565088       124.2224 
 129   0.0000       4.583128       124.7132 
 130   0.0000       4.620878       125.7405 
 131   0.0000       5.006345       136.2296 
 132   0.0000       5.070951       137.9876 
 133   0.0000       5.111700       139.0964 
 134   0.0000       5.350539       145.5956 
 135   0.0000       5.365411       146.0003 
 136   0.0000       5.434490       147.8800 
 137   0.0000       5.492959       149.4710 
 138   0.0000       5.555567       151.1747 
 139   0.0000       5.591845       152.1618 
 140   0.0000       5.776260       157.1800 
 141   0.0000       5.784949       157.4165 
 142   0.0000       5.966334       162.3522 
 143   0.0000       6.000159       163.2726 
 144   0.0000       6.071085       165.2026 
 145   0.0000       6.407428       174.3550 
 146   0.0000       6.535542       177.8411 
 147   0.0000       6.538664       177.9261 
 148   0.0000       6.603451       179.6890 
 149   0.0000       6.768277       184.1742 
 150   0.0000       6.810809       185.3315 
 151   0.0000       6.861238       186.7038 
 152   0.0000       7.046433       191.7432 
 153   0.0000       7.106110       193.3671 
 154   0.0000       7.154481       194.6833 
 155   0.0000       7.267872       197.7689 
 156   0.0000       7.352176       200.0629 
 157   0.0000       8.100612       220.4289 
 158   0.0000       8.904378       242.3005 
 159   0.0000       9.353761       254.5288 
 160   0.0000       9.552018       259.9236 
 161   0.0000       9.577896       260.6278 
 162   0.0000       9.763032       265.6656 
 163   0.0000       9.806617       266.8516 
 164   0.0000       9.908905       269.6350 
 165   0.0000      10.063567       273.8436 
 166   0.0000      11.097520       301.9789 
 167   0.0000      19.093716       519.5664 
 168   0.0000      22.336164       607.7979 
 169   0.0000      43.731858      1190.0044 
 170   0.0000      65.826962      1791.2427 
 171   0.0000     126.420734      3440.0831 

                    ********************************
                    * MULLIKEN POPULATION ANALYSIS *
                    ********************************

-----------------------
MULLIKEN ATOMIC CHARGES
-----------------------
   0 C :   -0.007583
   1 O :   -0.001995
   2 H :    0.000116
   3 H :    0.000226
   4 H :    0.001140
   5 H :   -0.000270
   6 C :   -0.178845
   7 O :   -0.470771
   8 H :    0.311909
   9 H :    0.110577
  10 H :    0.108934
  11 H :    0.126560
Sum of atomic charges:   -0.0000000

--------------------------------
MULLIKEN REDUCED ORBITAL CHARGES
--------------------------------
  0 C s       :     0.002295  s :     0.002295
      pz      :     0.000696  p :     0.005284
      px      :     0.004464
      py      :     0.000124
      dz2     :     0.000026  d :     0.000002
      dxz     :    -0.000006
      dyz     :    -0.000003
      dx2y2   :     0.000005
      dxy     :    -0.000020
      f0      :     0.000000  f :     0.000002
      f+1     :     0.000000
      f-1     :    -0.000000
      f+2     :     0.000000
      f-2     :     0.000000
      f+3     :     0.000001
      f-3     :     0.000001
  1 O s       :     0.000757  s :     0.000757
      pz      :    -0.000334  p :     0.001318
      px      :     0.001661
      py      :    -0.000010
      dz2     :    -0.000016  d :    -0.000078
      dxz     :    -0.000027
      dyz     :     0.000000
      dx2y2   :    -0.000026
      dxy     :    -0.000009
      f0      :     0.000000  f :    -0.000002
      f+1     :    -0.000000
      f-1     :     0.000000
      f+2     :    -0.000001
      f-2     :    -0.000000
      f+3     :    -0.000000
      f-3     :    -0.000000
  2 H s       :    -0.000099  s :    -0.000099
      pz      :    -0.000013  p :    -0.000017
      px      :    -0.000003
      py      :    -0.000001
  3 H s       :    -0.000225  s :    -0.000225
      pz      :    -0.000001  p :    -0.000001
      px      :    -0.000002
      py      :     0.000001
  4 H s       :    -0.001140  s :    -0.001140
      pz      :     0.000002  p :    -0.000001
      px      :    -0.000003
      py      :     0.000000
  5 H s       :     0.000270  s :     0.000270
      pz      :    -0.000000  p :    -0.000000
      px      :    -0.000000
      py      :    -0.000000
  6 C s       :     3.236293  s :     3.236293
      pz      :     0.740648  p :     2.839231
      px      :     1.053267
      py      :     1.045317
      dz2     :     0.022111  d :     0.096087
      dxz     :     0.014774
      dyz     :     0.034698
      dx2y2   :     0.014982
      dxy     :     0.009521
      f0      :     0.001939  f :     0.007233
      f+1     :     0.001431
      f-1     :     0.001547
      f+2     :     0.000827
      f-2     :     0.000888
      f+3     :     0.000375
      f-3     :     0.000227
  7 O s       :     3.789310  s :     3.789310
      pz      :     1.452135  p :     4.650486
      px      :     1.309107
      py      :     1.889244
      dz2     :     0.011285  d :     0.029350
      dxz     :     0.005995
      dyz     :     0.004260
      dx2y2   :     0.006108
      dxy     :     0.001701
      f0      :     0.000199  f :     0.001625
      f+1     :     0.000307
      f-1     :     0.000157
      f+2     :     0.000236
      f-2     :     0.000064
      f+3     :     0.000441
      f-3     :     0.000221
  8 H s       :     0.638253  s :     0.638253
      pz      :     0.011706  p :     0.049838
      px      :     0.019461
      py      :     0.018671
  9 H s       :     0.869918  s :     0.869918
      pz      :     0.004394  p :     0.019505
      px      :     0.003965
      py      :     0.011146
 10 H s       :     0.871508  s :     0.871508
      pz      :     0.005596  p :     0.019558
      px      :     0.005220
      py      :     0.008742
 11 H s       :     0.853328  s :     0.853328
      pz      :     0.002741  p :     0.020111
      px      :     0.012623
      py      :     0.004748


                     *******************************
                     * LOEWDIN POPULATION ANALYSIS *
                     *******************************

----------------------
LOEWDIN ATOMIC CHARGES
----------------------
   0 C :   -0.007763
   1 O :   -0.010531
   2 H :   -0.001469
   3 H :   -0.000873
   4 H :   -0.000617
   5 H :   -0.000146
   6 C :   -0.364165
   7 O :   -0.080632
   8 H :    0.160223
   9 H :    0.098225
  10 H :    0.100699
  11 H :    0.107048

-------------------------------
LOEWDIN REDUCED ORBITAL CHARGES
-------------------------------
  0 C s       :     0.001158  s :     0.001158
      pz      :     0.000405  p :     0.006286
      px      :     0.005020
      py      :     0.000861
      dz2     :     0.000073  d :     0.000315
      dxz     :     0.000049
      dyz     :     0.000001
      dx2y2   :     0.000153
      dxy     :     0.000038
      f0      :     0.000000  f :     0.000004
      f+1     :     0.000001
      f-1     :     0.000000
      f+2     :     0.000001
      f-2     :     0.000000
      f+3     :     0.000001
      f-3     :     0.000001
  1 O s       :     0.001384  s :     0.001384
      pz      :     0.001756  p :     0.008850
      px      :     0.006752
      py      :     0.000341
      dz2     :     0.000025  d :     0.000290
      dxz     :     0.000107
      dyz     :     0.000004
      dx2y2   :     0.000137
      dxy     :     0.000018
      f0      :     0.000001  f :     0.000007
      f+1     :     0.000000
      f-1     :     0.000000
      f+2     :     0.000003
      f-2     :     0.000000
      f+3     :     0.000002
      f-3     :     0.000001
  2 H s       :     0.001455  s :     0.001455
      pz      :     0.000003  p :     0.000013
      px      :     0.000010
      py      :     0.000000
  3 H s       :     0.000869  s :     0.000869
      pz      :     0.000001  p :     0.000005
      px      :     0.000003
      py      :     0.000001
  4 H s       :     0.000615  s :     0.000615
      pz      :     0.000000  p :     0.000002
      px      :     0.000002
      py      :     0.000000
  5 H s       :     0.000144  s :     0.000144
      pz      :     0.000001  p :     0.000002
      px      :     0.000001
      py      :     0.000000
  6 C s       :     2.870891  s :     2.870891
      pz      :     0.871416  p :     3.051093
      px      :     1.083019
      py      :     1.096658
      dz2     :     0.103430  d :     0.389711
      dxz     :     0.066508
      dyz     :     0.129023
      dx2y2   :     0.067523
      dxy     :     0.023227
      f0      :     0.013040  f :     0.052469
      f+1     :     0.012234
      f-1     :     0.008531
      f+2     :     0.004452
      f-2     :     0.009669
      f+3     :     0.002344
      f-3     :     0.002198
  7 O s       :     3.369089  s :     3.369089
      pz      :     1.519296  p :     4.640406
      px      :     1.326937
      py      :     1.794173
      dz2     :     0.025084  d :     0.066779
      dxz     :     0.014081
      dyz     :     0.010700
      dx2y2   :     0.013380
      dxy     :     0.003534
      f0      :     0.001050  f :     0.004359
      f+1     :     0.001016
      f-1     :     0.000599
      f+2     :     0.000495
      f-2     :     0.000296
      f+3     :     0.000680
      f-3     :     0.000222
  8 H s       :     0.672552  s :     0.672552
      pz      :     0.036919  p :     0.167226
      px      :     0.078070
      py      :     0.052237
  9 H s       :     0.841838  s :     0.841838
      pz      :     0.013377  p :     0.059937
      px      :     0.013392
      py      :     0.033168
 10 H s       :     0.839304  s :     0.839304
      pz      :     0.016748  p :     0.059996
      px      :     0.016722
      py      :     0.026526
 11 H s       :     0.832134  s :     0.832134
      pz      :     0.008771  p :     0.060818
      px      :     0.037516
      py      :     0.014531


                      *****************************
                      * MAYER POPULATION ANALYSIS *
                      *****************************

  NA   - Mulliken gross atomic population
  ZA   - Total nuclear charge
  QA   - Mulliken gross atomic charge
  VA   - Mayer's total valence
  BVA  - Mayer's bonded valence
  FA   - Mayer's free valence

  ATOM       NA         ZA         QA         VA         BVA        FA
  0 C      0.0076     0.0000    -0.0076     0.0151     0.0151     0.0000
  1 O      0.0020     0.0000    -0.0020     0.0040     0.0040    -0.0000
  2 H     -0.0001     0.0000     0.0001    -0.0002    -0.0002    -0.0000
  3 H     -0.0002     0.0000     0.0002    -0.0005    -0.0005    -0.0000
  4 H     -0.0011     0.0000     0.0011    -0.0023    -0.0023    -0.0000
  5 H      0.0003     0.0000    -0.0003     0.0005     0.0005     0.0000
  6 C      6.1788     6.0000    -0.1788     3.9260     3.9260    -0.0000
  7 O      8.4708     8.0000    -0.4708     1.8937     1.8937    -0.0000
  8 H      0.6881     1.0000     0.3119     0.9269     0.9269    -0.0000
  9 H      0.8894     1.0000     0.1106     0.9570     0.9570    -0.0000
 10 H      0.8911     1.0000     0.1089     0.9637     0.9637    -0.0000
 11 H      0.8734     1.0000     0.1266     0.9579     0.9579    -0.0000

  Mayer bond orders larger than 0.1
B(  6-C ,  7-O ) :   0.9833 B(  6-C ,  9-H ) :   0.9718 B(  6-C , 10-H ) :   0.9897 
B(  6-C , 11-H ) :   0.9708 B(  7-O ,  8-H ) :   0.9132 

-------
TIMINGS
-------

Total SCF time: 0 days 0 hours 0 min 9 sec 

Total time                  ....       9.452 sec
Sum of individual times     ....       9.195 sec  ( 97.3%)

Fock matrix formation       ....       8.707 sec  ( 92.1%)
  XC integration            ....       1.085 sec  ( 12.5% of F)
    Basis function eval.    ....       0.059 sec  (  5.4% of XC)
    Density eval.           ....       0.056 sec  (  5.2% of XC)
    XC-Functional eval.     ....       0.077 sec  (  7.1% of XC)
    XC-Potential eval.      ....       0.065 sec  (  6.0% of XC)
Diagonalization             ....       0.042 sec  (  0.4%)
Density matrix formation    ....       0.004 sec  (  0.0%)
Population analysis         ....       0.017 sec  (  0.2%)
Initial guess               ....       0.094 sec  (  1.0%)
Orbital Transformation      ....       0.000 sec  (  0.0%)
Orbital Orthonormalization  ....       0.000 sec  (  0.0%)
DIIS solution               ....       0.021 sec  (  0.2%)
SOSCF solution              ....       0.023 sec  (  0.2%)
Grid generation             ....       0.285 sec  (  3.0%)


-------------------------------------------------------------------------------
                          DFT DISPERSION CORRECTION                            
                                                                               
                              DFTD3 V3.1  Rev 1                                
                              USING zero damping                               
-------------------------------------------------------------------------------
The omegaB97X-D3 functional is recognized. Fit by Chai et al.
Active option DFTDOPT                   ...         3   

molecular C6(AA) [au] = 208.728586 


            DFT-D V3
 parameters
 s6 scaling factor         :     1.0000 
 rs6 scaling factor        :     1.2810 
 s8 scaling factor         :     1.0000 
 rs8 scaling factor        :     1.0940 
 Damping factor alpha6     :    14.0000 
 Damping factor alpha8     :    16.0000 
 ad hoc parameters k1-k3   :    16.0000     1.3333    -4.0000 

 Edisp/kcal,au: -0.148344950151  -0.000236402701 
 E6   /kcal   :  -0.030384438 
 E8   /kcal   :  -0.117960512 
 % E8         :  79.517713332 

-------------------------   ----------------
Dispersion correction           -0.000236403
-------------------------   ----------------


-------------------------   --------------------
FINAL SINGLE POINT ENERGY      -115.732290222146
-------------------------   --------------------


                            ***************************************
                            *     ORCA property calculations      *
                            ***************************************

                                    ---------------------
                                    Active property flags
                                    ---------------------
   (+) Dipole Moment


------------------------------------------------------------------------------
                       ORCA ELECTRIC PROPERTIES CALCULATION
------------------------------------------------------------------------------

Dipole Moment Calculation                       ... on
Quadrupole Moment Calculation                   ... off
Polarizability Calculation                      ... off
GBWName                                         ... 7-186_DFT_B.gbw
Electron density file                           ... 7-186_DFT_B.scfp.tmp
The origin for moment calculation is the CENTER OF MASS  = (-12.629860, 16.279561  9.324419)

-------------
DIPOLE MOMENT
-------------
                                X             Y             Z
Electronic contribution:     -0.54772      -0.02053      -1.71134
Nuclear contribution   :      0.24126      -0.06382       2.34537
                        -----------------------------------------
Total Dipole Moment    :     -0.30646      -0.08435       0.63402
                        -----------------------------------------
Magnitude (a.u.)       :      0.70923
Magnitude (Debye)      :      1.80273



--------------------
Rotational spectrum 
--------------------
 
Rotational constants in cm-1:     4.303262     0.805210     0.787952 
Rotational constants in MHz : 129008.542253 24139.575020 23622.212694 

 Dipole components along the rotational axes: 
x,y,z [a.u.] :     0.406236    -0.581214    -0.013295 
x,y,z [Debye]:     1.032569    -1.477329    -0.033794 

 
------------------------------------------------------------------------------
                      ORCA CHELPG CHARGES GENERATION
------------------------------------------------------------------------------

GBW file                           ... 7-186_DFT_B.gbw

Reading the GBW file               ... done

Grid spacing                       ...     0.300000
Point Cut-Off                      ...     2.800000
Van-der-Waals Radii                ...        COSMO
Total charge                       ...            0


Number of points X direction       ...           39
Number of points Y direction       ...           26
Number of points Z direction       ...           26
Maximum number of possible points  ...        26364
Final number of points             ...         5931


CHELPG Charges            
--------------------------------
  0   C   :       0.001862
  1   O   :       0.003449
  2   H   :       0.000229
  3   H   :       0.000371
  4   H   :       0.000123
  5   H   :      -0.013056
  6   C   :       0.070927
  7   O   :      -0.591844
  8   H   :       0.395879
  9   H   :       0.029900
 10   H   :       0.015403
 11   H   :       0.086757
--------------------------------
Total charge:    -0.000000
--------------------------------

CHELPG charges calculated...

Timings for individual parts in CHELPG calculation:
Grid generation                 ...        0.001 sec (=   0.000 min)
Potential calculation           ...        1.275 sec (=   0.021 min)
Fit to the potential            ...        0.002 sec (=   0.000 min)
------------------------------------------------------------------------------


Timings for individual modules:

Sum of individual times         ...       12.564 sec (=   0.209 min)
GTO integral calculation        ...        1.054 sec (=   0.018 min)   8.4 %
SCF iterations                  ...       10.204 sec (=   0.170 min)  81.2 %
CHELPG charge generation        ...        1.306 sec (=   0.022 min)  10.4 %



                             ****ORCA TERMINATED NORMALLY****
TOTAL RUN TIME: 0 days 0 hours 1 minutes 9 seconds 151 msec
