11
	Energy:       1.0231243
C         -1.96570       -0.42673        0.04050
C         -0.70275        0.41192       -0.14131
H         -2.86104        0.22909        0.00504
H         -1.94578       -0.95313        1.01862
H         -2.04827       -1.17855       -0.77315
C          0.54773       -0.46383       -0.11292
H          0.63143       -0.99116        0.86132
H          1.45100        0.16544       -0.25818
H          0.50859       -1.21630       -0.92922
I         -0.58638        1.88556        1.40871
H         -0.75469        0.93730       -1.11928
