14
	Energy:       2.6256224
C         -0.93651        0.47967       -0.03884
C          0.40021        1.13216       -0.40831
H         -0.93797       -0.58909       -0.34213
H         -1.77066        0.98998       -0.56612
H         -1.11512        0.54085        1.05646
C          0.39401        2.61706       -0.02867
H         -0.42985        3.14388       -0.55587
H          1.35364        3.09220       -0.32461
H          0.25559        2.74279        1.06694
C          1.55926        0.40735        0.28477
H          0.54051        1.05006       -1.50871
H          1.57709       -0.66196       -0.01602
H          1.45604        0.46635        1.38984
H          2.52789        0.86542       -0.00876
