15
	Energy:      12.0863138
C         -3.16309        0.19289        0.01428
C         -1.89858        1.03764        0.06348
H         -3.21685       -0.36105       -0.94704
H         -4.05469        0.84935        0.09899
H         -3.17216       -0.53291        0.85511
S         -0.43573       -0.04265       -0.07581
H         -1.87573        1.57901        1.03341
H         -1.92086        1.75257       -0.78666
C          0.76469        1.32672        0.02500
C          2.17904        0.77275       -0.06289
H          0.65392        1.85360        0.99685
H          0.60880        2.02714       -0.82322
H          2.36760        0.06841        0.77510
H          2.91111        1.60545       -0.00164
H          2.32292        0.24025       -1.02705
