
                                 *****************
                                 * O   R   C   A *
                                 *****************

           --- An Ab Initio, DFT and Semiempirical electronic structure package ---

                  #######################################################
                  #                        -***-                        #
                  #          Department of theory and spectroscopy      #
                  #               Directorship: Frank Neese             #
                  #        Max Planck Institute fuer Kohlenforschung    #
                  #                Kaiser Wilhelm Platz 1               #
                  #                 D-45470 Muelheim/Ruhr               #
                  #                      Germany                        #
                  #                                                     #
                  #                  All rights reserved                #
                  #                        -***-                        #
                  #######################################################


                         Program Version 4.1.2  - RELEASE  -


 With contributions from (in alphabetic order):
   Daniel Aravena         : Magnetic Properties
   Michael Atanasov       : Ab Initio Ligand Field Theory
   Alexander A. Auer      : GIAO ZORA
   Ute Becker             : Parallelization
   Giovanni Bistoni       : ED, Open-shell LED
   Martin Brehm           : Molecular dynamics
   Dmytro Bykov           : SCF Hessian
   Vijay G. Chilkuri      : MRCI spin determinant printing
   Dipayan Datta          : RHF DLPNO-CCSD density
   Achintya Kumar Dutta   : EOM-CC, STEOM-CC
   Dmitry Ganyushin       : Spin-Orbit,Spin-Spin,Magnetic field MRCI
   Miquel Garcia          : C-PCM Hessian
   Yang Guo               : DLPNO-NEVPT2, CIM, IAO-localization
   Andreas Hansen         : Spin unrestricted coupled pair/coupled cluster methods
   Benjamin Helmich-Paris : CASSCF linear response (MC-RPA)
   Lee Huntington         : MR-EOM, pCC
   Robert Izsak           : Overlap fitted RIJCOSX, COSX-SCS-MP3, EOM
   Christian Kollmar      : KDIIS, OOCD, Brueckner-CCSD(T), CCSD density
   Simone Kossmann        : Meta GGA functionals, TD-DFT gradient, OOMP2, MP2 Hessian
   Martin Krupicka        : AUTO-CI
   Lucas Lang             : DCDCAS
   Dagmar Lenk            : GEPOL surface, SMD
   Dimitrios Liakos       : Extrapolation schemes; parallel MDCI
   Dimitrios Manganas     : ROCIS; embedding schemes
   Dimitrios Pantazis     : SARC Basis sets
   Taras Petrenko         : DFT Hessian,TD-DFT gradient, ASA, ECA, R-Raman, ABS, FL, XAS/XES, NRVS
   Peter Pinski           : DLPNO-MP2, DLPNO-MP2 Gradient
   Christoph Reimann      : Effective Core Potentials
   Marius Retegan         : Local ZFS, SOC
   Christoph Riplinger    : Optimizer, TS searches, QM/MM, DLPNO-CCSD(T), (RO)-DLPNO pert. Triples
   Tobias Risthaus        : Range-separated hybrids, TD-DFT gradient, RPA, STAB
   Michael Roemelt        : Restricted open shell CIS
   Masaaki Saitow         : Open-shell DLPNO
   Barbara Sandhoefer     : DKH picture change effects
   Avijit Sen             : IP-ROCIS
   Kantharuban Sivalingam : CASSCF convergence, NEVPT2, FIC-MRCI
   Bernardo de Souza      : ESD, SOC TD-DFT
   Georgi Stoychev        : AutoAux, RI-MP2 NMR
   Willem Van den Heuvel  : Paramagnetic NMR
   Boris Wezisla          : Elementary symmetry handling
   Frank Wennmohs         : Technical directorship


 We gratefully acknowledge several colleagues who have allowed us to
 interface, adapt or use parts of their codes:
   Stefan Grimme, W. Hujo, H. Kruse,             : VdW corrections, initial TS optimization,
                  C. Bannwarth                     DFT functionals, gCP, sTDA/sTD-DF
   Ed Valeev                                     : LibInt (2-el integral package), F12 methods
   Garnet Chan, S. Sharma, J. Yang, R. Olivares  : DMRG
   Ulf Ekstrom                                   : XCFun DFT Library
   Mihaly Kallay                                 : mrcc  (arbitrary order and MRCC methods)
   Andreas Klamt, Michael Diedenhofen            : otool_cosmo (COSMO solvation model)
   Jiri Pittner, Ondrej Demel                    : Mk-CCSD
   Frank Weinhold                                : gennbo (NPA and NBO analysis)
   Christopher J. Cramer and Donald G. Truhlar   : smd solvation model
   Lars Goerigk                                  : TD-DFT with DH, B97 family of functionals
   V. Asgeirsson, H. Jonsson                     : NEB implementation
   FAccTs GmbH                                   : IRC, NEB, NEB-TS, Multilevel


 Your calculation uses the libint2 library for the computation of 2-el integrals
 For citations please refer to: http://libint.valeyev.net

 This ORCA versions uses:
   CBLAS   interface :  Fast vector & matrix operations
   LAPACKE interface :  Fast linear algebra routines
   SCALAPACK package :  Parallel linear algebra routines


Your calculation utilizes the atom-pairwise dispersion correction
with the zero-damping scheme (D30)
Cite in your paper:
S.Grimme, J.Antony, S.Ehrlich and H.Krieg, J.Chem.Phys., 132, (2010), 154104 
   

XCFun DFT library Copyright 2009-2010 Ulf Ekstrom and contributors.
See http://admol.org/xcfun for more information. This is free soft-
ware; see the source code for copying conditions. There is ABSOLUTELY
NO WARRANTY; not even for MERCHANTABILITY or FITNESS FOR A PARTICULAR
PURPOSE. For details see the documentation. Scientific users of this 
library should cite U. Ekstrom, L. Visscher, R. Bast, A. J. Thorvald-
sen and K. Ruud; J.Chem.Theor.Comp. 2010, DOI: 10.1021/ct100117s
XCFun Version 0.99 
----- Orbital basis set information -----
Your calculation utilizes the basis: def2-TZVP
   F. Weigend and R. Ahlrichs, Phys. Chem. Chem. Phys. 7, 3297 (2005).

================================================================================
                                        WARNINGS
                       Please study these warnings very carefully!
================================================================================


INFO   : the flag for use of LIBINT has been found!

Your calculation utilizes the atom-pairwise dispersion correction
with the zero-damping scheme (D30)
Cite in your paper:
S.Grimme, J.Antony, S.Ehrlich and H.Krieg, J.Chem.Phys., 132, (2010), 154104 
   

XCFun DFT library Copyright 2009-2010 Ulf Ekstrom and contributors.
See http://admol.org/xcfun for more information. This is free soft-
ware; see the source code for copying conditions. There is ABSOLUTELY
NO WARRANTY; not even for MERCHANTABILITY or FITNESS FOR A PARTICULAR
PURPOSE. For details see the documentation. Scientific users of this 
library should cite U. Ekstrom, L. Visscher, R. Bast, A. J. Thorvald-
sen and K. Ruud; J.Chem.Theor.Comp. 2010, DOI: 10.1021/ct100117s
XCFun Version 0.99 
----- Orbital basis set information -----
Your calculation utilizes the basis: def2-TZVP
   F. Weigend and R. Ahlrichs, Phys. Chem. Chem. Phys. 7, 3297 (2005).

================================================================================
                                        WARNINGS
                       Please study these warnings very carefully!
================================================================================


WARNING: MOInp is set but Guess=PModel. MOInp will be ignored!
         To read the initial guess from a file you must also specify
         'MORead' in the simple input or 'Guess MORead' in the %scf block


INFO   : the flag for use of LIBINT has been found!

Your calculation utilizes the atom-pairwise dispersion correction
with the zero-damping scheme (D30)
Cite in your paper:
S.Grimme, J.Antony, S.Ehrlich and H.Krieg, J.Chem.Phys., 132, (2010), 154104 
   

XCFun DFT library Copyright 2009-2010 Ulf Ekstrom and contributors.
See http://admol.org/xcfun for more information. This is free soft-
ware; see the source code for copying conditions. There is ABSOLUTELY
NO WARRANTY; not even for MERCHANTABILITY or FITNESS FOR A PARTICULAR
PURPOSE. For details see the documentation. Scientific users of this 
library should cite U. Ekstrom, L. Visscher, R. Bast, A. J. Thorvald-
sen and K. Ruud; J.Chem.Theor.Comp. 2010, DOI: 10.1021/ct100117s
XCFun Version 0.99 
----- Orbital basis set information -----
Your calculation utilizes the basis: def2-TZVP
   F. Weigend and R. Ahlrichs, Phys. Chem. Chem. Phys. 7, 3297 (2005).

================================================================================
                                        WARNINGS
                       Please study these warnings very carefully!
================================================================================


WARNING: MOInp is set but Guess=PModel. MOInp will be ignored!
         To read the initial guess from a file you must also specify
         'MORead' in the simple input or 'Guess MORead' in the %scf block


INFO   : the flag for use of LIBINT has been found!

================================================================================
                                       INPUT FILE
================================================================================
NAME = 20-174.in
|  1> #Run DFT-D3 single point of the dimer
|  2> ! wB97X-D3 def2-TZVP TIGHTSCF CHELPG PMODEL PAL8
|  3> 
|  4> %base "20-174_DFT_AB"
|  5> 
|  6> %scf
|  7> MaxIter 1000
|  8> end
|  9> 
| 10> * xyz 0 1
| 11>   C                      -2.839331            -4.624066            -9.836446           
| 12>   O                      -1.719104            -4.080360            -10.454234          
| 13>   H                      -1.376392            -3.306859            -10.009354          
| 14>   H                      -3.438690            -3.787081            -9.526616           
| 15>   H                      -3.493645            -5.294238            -10.487949          
| 16>   H                      -2.562493            -5.181358            -8.961584           
| 17>   C                      -1.280630            -1.801478            -7.755175           
| 18>   O                      -0.290608            -2.363791            -8.530662           
| 19>   H                      0.134370             -2.922786            -7.844523           
| 20>   H                      -1.015704            -1.612468            -6.726996           
| 21>   H                      -1.746355            -0.885529            -8.222018           
| 22>   H                      -2.120418            -2.459426            -7.597261           
| 23> *
| 24> 
| 25> #Run DFT-D3 single point of the molecule with dimer basis set
| 26> $new_job
| 27> %base "20-174_DFT_A"
| 28> ! wB97X-D3 def2-TZVP TIGHTSCF CHELPG PMODEL
| 29> 
| 30> %scf
| 31> MaxIter 1000
| 32> end
| 33> 
| 34> * xyz 0 1
| 35>   C                      -2.839331            -4.624066            -9.836446           
| 36>   O                      -1.719104            -4.080360            -10.454234          
| 37>   H                      -1.376392            -3.306859            -10.009354          
| 38>   H                      -3.438690            -3.787081            -9.526616           
| 39>   H                      -3.493645            -5.294238            -10.487949          
| 40>   H                      -2.562493            -5.181358            -8.961584           
| 41>   C                    : -1.280630            -1.801478            -7.755175           
| 42>   O                    : -0.290608            -2.363791            -8.530662           
| 43>   H                    : 0.134370             -2.922786            -7.844523           
| 44>   H                    : -1.015704            -1.612468            -6.726996           
| 45>   H                    : -1.746355            -0.885529            -8.222018           
| 46>   H                    : -2.120418            -2.459426            -7.597261           
| 47> *
| 48> 
| 49> #Run DFT-D3 single point of the particle with dimer basis set
| 50> $new_job
| 51> %base "20-174_DFT_B"
| 52> ! wB97X-D3 def2-TZVP TIGHTSCF CHELPG PMODEL
| 53> 
| 54> %scf
| 55> MaxIter 1000
| 56> end
| 57> 
| 58> * xyz 0 1
| 59>   C                    : -2.839331            -4.624066            -9.836446           
| 60>   O                    : -1.719104            -4.080360            -10.454234          
| 61>   H                    : -1.376392            -3.306859            -10.009354          
| 62>   H                    : -3.438690            -3.787081            -9.526616           
| 63>   H                    : -3.493645            -5.294238            -10.487949          
| 64>   H                    : -2.562493            -5.181358            -8.961584           
| 65>   C                      -1.280630            -1.801478            -7.755175           
| 66>   O                      -0.290608            -2.363791            -8.530662           
| 67>   H                      0.134370             -2.922786            -7.844523           
| 68>   H                      -1.015704            -1.612468            -6.726996           
| 69>   H                      -1.746355            -0.885529            -8.222018           
| 70>   H                      -2.120418            -2.459426            -7.597261           
| 71> *
| 72> 
| 73>                          ****END OF INPUT****
================================================================================


                 $$$$$$$$$$$$$$$$$$$$$$$$$$$$$$$$$$$$$$$$$$$$$$ 
                 $ THERE ARE  3 JOBS TO BE PROCESSED THIS RUN $
                 $$$$$$$$$$$$$$$$$$$$$$$$$$$$$$$$$$$$$$$$$$$$$$ 




                 $$$$$$$$$$$$$$$$  JOB NUMBER  1 $$$$$$$$$$$$$$


                       ****************************
                       * Single Point Calculation *
                       ****************************

---------------------------------
CARTESIAN COORDINATES (ANGSTROEM)
---------------------------------
  C     -2.839331   -4.624066   -9.836446
  O     -1.719104   -4.080360  -10.454234
  H     -1.376392   -3.306859  -10.009354
  H     -3.438690   -3.787081   -9.526616
  H     -3.493645   -5.294238  -10.487949
  H     -2.562493   -5.181358   -8.961584
  C     -1.280630   -1.801478   -7.755175
  O     -0.290608   -2.363791   -8.530662
  H      0.134370   -2.922786   -7.844523
  H     -1.015704   -1.612468   -6.726996
  H     -1.746355   -0.885529   -8.222018
  H     -2.120418   -2.459426   -7.597261

----------------------------
CARTESIAN COORDINATES (A.U.)
----------------------------
  NO LB      ZA    FRAG     MASS         X           Y           Z
   0 C     6.0000    0    12.011   -5.365558   -8.738218  -18.588189
   1 O     8.0000    0    15.999   -3.248636   -7.710763  -19.755639
   2 H     1.0000    0     1.008   -2.601004   -6.249058  -18.914938
   3 H     1.0000    0     1.008   -6.498182   -7.156546  -18.002695
   4 H     1.0000    0     1.008   -6.602032  -10.004660  -19.819351
   5 H     1.0000    0     1.008   -4.842410   -9.791348  -16.934939
   6 C     6.0000    0    12.011   -2.420040   -3.404300  -14.655157
   7 O     8.0000    0    15.999   -0.549170   -4.466918  -16.120615
   8 H     1.0000    0     1.008    0.253923   -5.523265  -14.824000
   9 H     1.0000    0     1.008   -1.919402   -3.047123  -12.712180
  10 H     1.0000    0     1.008   -3.300133   -1.673407  -15.537362
  11 H     1.0000    0     1.008   -4.007009   -4.647642  -14.356743

--------------------------------
INTERNAL COORDINATES (ANGSTROEM)
--------------------------------
 C      0   0   0     0.000000000000     0.00000000     0.00000000
 O      1   0   0     1.390031207890     0.00000000     0.00000000
 H      2   1   0     0.955862713126   113.49159878     0.00000000
 H      1   2   3     1.075067314174   105.83444031    40.28944392
 H      1   2   3     1.140926587993   115.98564618   159.47461427
 H      1   2   3     1.073590783563   110.94077123   283.09957357
 C      3   2   1     2.712317326539   148.05925243    17.75368872
 O      7   3   2     1.377577423458    48.00789035   126.35515207
 H      8   7   3     0.981768016300    98.63149565   238.81333690
 H      7   3   2     1.078453810609   153.93443374    67.57933680
 H      7   3   2     1.128629581783    95.28384953   243.12735906
 H      7   3   2     1.078460146247    75.85331973   345.80173147

---------------------------
INTERNAL COORDINATES (A.U.)
---------------------------
 C      0   0   0     0.000000000000     0.00000000     0.00000000
 O      1   0   0     2.626778300516     0.00000000     0.00000000
 H      2   1   0     1.806318749435   113.49159878     0.00000000
 H      1   2   3     2.031582799320   105.83444031    40.28944392
 H      1   2   3     2.156038790216   115.98564618   159.47461427
 H      1   2   3     2.028792560837   110.94077123   283.09957357
 C      3   2   1     5.125536935449   148.05925243    17.75368872
 O      7   3   2     2.603244058609    48.00789035   126.35515207
 H      8   7   3     1.855272677850    98.63149565   238.81333690
 H      7   3   2     2.037982350135   153.93443374    67.57933680
 H      7   3   2     2.132800816211    95.28384953   243.12735906
 H      7   3   2     2.037994322756    75.85331973   345.80173147

---------------------
BASIS SET INFORMATION
---------------------
There are 3 groups of distinct atoms

 Group   1 Type C   : 11s6p2d1f contracted to 5s3p2d1f pattern {62111/411/11/1}
 Group   2 Type O   : 11s6p2d1f contracted to 5s3p2d1f pattern {62111/411/11/1}
 Group   3 Type H   : 5s1p contracted to 3s1p pattern {311/1}

Atom   0C    basis set group =>   1
Atom   1O    basis set group =>   2
Atom   2H    basis set group =>   3
Atom   3H    basis set group =>   3
Atom   4H    basis set group =>   3
Atom   5H    basis set group =>   3
Atom   6C    basis set group =>   1
Atom   7O    basis set group =>   2
Atom   8H    basis set group =>   3
Atom   9H    basis set group =>   3
Atom  10H    basis set group =>   3
Atom  11H    basis set group =>   3


           ************************************************************
           *        Program running with 8 parallel MPI-processes     *
           *              working on a common directory               *
           ************************************************************
------------------------------------------------------------------------------
                           ORCA GTO INTEGRAL CALCULATION
------------------------------------------------------------------------------

                         BASIS SET STATISTICS AND STARTUP INFO

 # of primitive gaussian shells          ...  128
 # of primitive gaussian functions       ...  248
 # of contracted shells                  ...   76
 # of contracted basis functions         ...  172
 Highest angular momentum                ...    3
 Maximum contraction depth               ...    6
 Integral package used                   ... LIBINT
 Integral threshhold            Thresh   ...  2.500e-11
 Primitive cut-off              TCut     ...  2.500e-12


------------------------------ INTEGRAL EVALUATION ----------------------------


 * One electron integrals 
 Pre-screening matrix                    ... done
 Shell pair data                         ... done (   0.001 sec)



           ************************************************************
           *        Program running with 8 parallel MPI-processes     *
           *              working on a common directory               *
           ************************************************************
-------------------------------------------------------------------------------
                                 ORCA SCF
-------------------------------------------------------------------------------

------------
SCF SETTINGS
------------
Hamiltonian:
 Density Functional     Method          .... DFT(GTOs)
 Exchange Functional    Exchange        .... WB97X-D3
 Correlation Functional Correlation     .... WB97X-D3
 Gradients option       PostSCFGGA      .... off
 Hybrid DFT is turned on
   Fraction HF Exchange ScalHFX         ....  0.195728
   Scaling of DF-GGA-X  ScalDFX         ....  0.000000
   Scaling of DF-GGA-C  ScalDFC         ....  1.000000
   Scaling of DF-LDA-C  ScalLDAC        ....  1.000000
   Perturbative correction              ....  0.000000
   Density functional embedding theory  .... OFF
 Long-range corrected/Screened/Range-Separated Hybrid DFT is turned on
   Amount of maximum screened exact exchange              ....  0.804272
   Range separation parameter mu (erf(mu*r12)/r12)        ....  0.250000


General Settings:
 Integral files         IntName         .... 20-174_DFT_AB
 Hartree-Fock type      HFTyp           .... RHF
 Total Charge           Charge          ....    0
 Multiplicity           Mult            ....    1
 Number of Electrons    NEL             ....   36
 Basis Dimension        Dim             ....  172
 Nuclear Repulsion      ENuc            ....    131.0915737049 Eh

Convergence Acceleration:
 DIIS                   CNVDIIS         .... on
   Start iteration      DIISMaxIt       ....    12
   Startup error        DIISStart       ....  0.200000
   # of expansion vecs  DIISMaxEq       ....     5
   Bias factor          DIISBfac        ....   1.050
   Max. coefficient     DIISMaxC        ....  10.000
 Newton-Raphson         CNVNR           .... off
 SOSCF                  CNVSOSCF        .... on
   Start iteration      SOSCFMaxIt      ....   150
   Startup grad/error   SOSCFStart      ....  0.003300
 Level Shifting         CNVShift        .... on
   Level shift para.    LevelShift      ....    0.2500
   Turn off err/grad.   ShiftErr        ....    0.0010
 Zerner damping         CNVZerner       .... off
 Static damping         CNVDamp         .... on
   Fraction old density DampFac         ....    0.7000
   Max. Damping (<1)    DampMax         ....    0.9800
   Min. Damping (>=0)   DampMin         ....    0.0000
   Turn off err/grad.   DampErr         ....    0.1000
 Fernandez-Rico         CNVRico         .... off

SCF Procedure:
 Maximum # iterations   MaxIter         ....  1000
 SCF integral mode      SCFMode         .... Direct
   Integral package                     .... LIBINT
 Reset frequency        DirectResetFreq ....    20
 Integral Threshold     Thresh          ....  2.500e-11 Eh
 Primitive CutOff       TCut            ....  2.500e-12 Eh

Convergence Tolerance:
 Convergence Check Mode ConvCheckMode   .... Total+1el-Energy
 Convergence forced     ConvForced      .... 0
 Energy Change          TolE            ....  1.000e-08 Eh
 1-El. energy change                    ....  1.000e-05 Eh
 Orbital Gradient       TolG            ....  1.000e-05
 Orbital Rotation angle TolX            ....  1.000e-05
 DIIS Error             TolErr          ....  5.000e-07


Diagonalization of the overlap matrix:
Smallest eigenvalue                        ... 1.370e-03
Time for diagonalization                   ...    0.004 sec
Threshold for overlap eigenvalues          ... 1.000e-08
Number of eigenvalues below threshold      ... 0
Time for construction of square roots      ...    0.005 sec
Total time needed                          ...    0.009 sec

-------------------
DFT GRID GENERATION
-------------------

General Integration Accuracy     IntAcc      ...  4.340
Radial Grid Type                 RadialGrid  ... Gauss-Chebyshev
Angular Grid (max. acc.)         AngularGrid ... Lebedev-110
Angular grid pruning method      GridPruning ... 3 (G Style)
Weight generation scheme         WeightScheme... Becke
Basis function cutoff            BFCut       ...    1.0000e-11
Integration weight cutoff        WCut        ...    1.0000e-14
Grids for H and He will be reduced by one unit

# of grid points (after initial pruning)     ...  13096 (   0.0 sec)
# of grid points (after weights+screening)   ...  12426 (   0.0 sec)
nearest neighbour list constructed           ...    0.0 sec
Grid point re-assignment to atoms done       ...    0.0 sec
Grid point division into batches done        ...    0.0 sec
Reduced shell lists constructed in    0.0 sec

Total number of grid points                  ...    12426
Total number of batches                      ...      201
Average number of points per batch           ...       61
Average number of grid points per atom       ...     1036
Average number of shells per batch           ...    53.30 (70.13%)
Average number of basis functions per batch  ...   118.93 (69.14%)
Average number of large shells per batch     ...    42.85 (80.40%)
Average number of large basis fcns per batch ...    94.78 (79.69%)
Maximum spatial batch extension              ...  17.29, 19.49, 16.15 au
Average spatial batch extension              ...   0.43,  0.42,  0.40 au

Time for grid setup =    0.040 sec

------------------------------
INITIAL GUESS: MODEL POTENTIAL
------------------------------
Loading Hartree-Fock densities                     ... done
Calculating cut-offs                               ... done
Setting up the integral package                    ... done
Initializing the effective Hamiltonian             ... done
Starting the Coulomb interaction                   ... done (   0.0 sec)
Reading the grid                                   ... done
Mapping shells                                     ... done
Starting the XC term evaluation                    ... done (   0.0 sec)
  promolecular density results
     # of electrons  =     35.995636486
     EX              =    -28.883874606
     EC              =     -1.159969749
     EX+EC           =    -30.043844355
Transforming the Hamiltonian                       ... done (   0.0 sec)
Diagonalizing the Hamiltonian                      ... done (   0.0 sec)
Back transforming the eigenvectors                 ... done (   0.0 sec)
Now organizing SCF variables                       ... done
                      ------------------
                      INITIAL GUESS DONE (   0.2 sec)
                      ------------------
--------------
SCF ITERATIONS
--------------
ITER       Energy         Delta-E        Max-DP      RMS-DP      [F,P]     Damp
               ***  Starting incremental Fock matrix formation  ***
  0   -231.2954547509   0.000000000000 0.03639587  0.00107021  0.2466378 0.7000
  1   -231.3669282983  -0.071473547393 0.02166806  0.00076976  0.1233865 0.7000
                               ***Turning on DIIS***
  2   -231.4001877364  -0.033259438053 0.03654170  0.00140994  0.0481056 0.0000
  3   -231.4542475147  -0.054059778288 0.01766036  0.00050139  0.0601026 0.0000
  4   -231.4629924454  -0.008744930708 0.00408304  0.00009795  0.0060410 0.0000
                      *** Initiating the SOSCF procedure ***
                           *** Shutting down DIIS ***
                      *** Re-Reading the Fockian *** 
                      *** Removing any level shift *** 
ITER      Energy       Delta-E        Grad      Rot      Max-DP    RMS-DP
  5   -231.46316912  -0.0001766717  0.000407  0.000407  0.000770  0.000036
               *** Restarting incremental Fock matrix formation ***
  6   -231.46318675  -0.0000176280  0.000151  0.000248  0.000555  0.000022
  7   -231.46318866  -0.0000019142  0.000046  0.000140  0.000287  0.000011
  8   -231.46318882  -0.0000001624  0.000027  0.000022  0.000048  0.000001
  9   -231.46318885  -0.0000000310  0.000011  0.000009  0.000020  0.000001
 10   -231.46318886  -0.0000000033  0.000004  0.000003  0.000005  0.000000
                  ***Gradient check signals convergence***
              ***Rediagonalizing the Fockian in SOSCF/NRSCF***

               *****************************************************
               *                     SUCCESS                       *
               *           SCF CONVERGED AFTER  11 CYCLES          *
               *****************************************************

Setting up the final grid:

General Integration Accuracy     IntAcc      ...  4.670
Radial Grid Type                 RadialGrid  ... Gauss-Chebyshev
Angular Grid (max. acc.)         AngularGrid ... Lebedev-302
Angular grid pruning method      GridPruning ... 3 (G Style)
Weight generation scheme         WeightScheme... Becke
Basis function cutoff            BFCut       ...    1.0000e-11
Integration weight cutoff        WCut        ...    1.0000e-14
Grids for H and He will be reduced by one unit

# of grid points (after initial pruning)     ...  52000 (   0.0 sec)
# of grid points (after weights+screening)   ...  48894 (   0.0 sec)
nearest neighbour list constructed           ...    0.0 sec
Grid point re-assignment to atoms done       ...    0.0 sec
Grid point division into batches done        ...    0.2 sec
Reduced shell lists constructed in    0.2 sec

Total number of grid points                  ...    48894
Total number of batches                      ...      771
Average number of points per batch           ...       63
Average number of grid points per atom       ...     4074
Average number of shells per batch           ...    50.29 (66.17%)
Average number of basis functions per batch  ...   110.98 (64.52%)
Average number of large shells per batch     ...    40.50 (80.54%)
Average number of large basis fcns per batch ...    89.42 (80.57%)
Maximum spatial batch extension              ...  14.01, 14.01, 15.42 au
Average spatial batch extension              ...   0.26,  0.27,  0.27 au

Final grid set up in    0.3 sec
Final integration                            ... done (   0.1 sec)
Change in XC energy                          ...    -0.000117250
Integrated number of electrons               ...    35.999967587
Previous integrated no of electrons          ...    35.999330142

----------------
TOTAL SCF ENERGY
----------------

Total Energy       :         -231.46330611 Eh           -6298.43677 eV

Components:
Nuclear Repulsion  :          131.09157370 Eh            3567.18307 eV
Electronic Energy  :         -362.55487981 Eh           -9865.61984 eV
One Electron Energy:         -574.81322690 Eh          -15641.46310 eV
Two Electron Energy:          212.25834709 Eh            5775.84326 eV

Virial components:
Potential Energy   :         -462.04330540 Eh          -12572.83753 eV
Kinetic Energy     :          230.57999929 Eh            6274.40077 eV
Virial Ratio       :            2.00383080


DFT components:
N(Alpha)           :       17.999983793330 electrons
N(Beta)            :       17.999983793330 electrons
N(Total)           :       35.999967586659 electrons
E(XC)              :      -21.328846364142 Eh       
DFET-embed. en.    :        0.000000000000 Eh       

---------------
SCF CONVERGENCE
---------------

  Last Energy change         ...   -6.8604e-10  Tolerance :   1.0000e-08
  Last MAX-Density change    ...    2.3969e-06  Tolerance :   1.0000e-07
  Last RMS-Density change    ...    8.5128e-08  Tolerance :   5.0000e-09
  Last Orbital Gradient      ...    1.0980e-06  Tolerance :   1.0000e-05
  Last Orbital Rotation      ...    1.2226e-06  Tolerance :   1.0000e-05

             **** THE GBW FILE WAS UPDATED (20-174_DFT_AB.gbw) ****
             **** DENSITY FILE WAS UPDATED (20-174_DFT_AB.scfp.tmp) ****
             **** ENERGY FILE WAS UPDATED (20-174_DFT_AB.en.tmp) ****
----------------
ORBITAL ENERGIES
----------------

  NO   OCC          E(Eh)            E(eV) 
   0   2.0000     -19.262309      -524.1541 
   1   2.0000     -19.204482      -522.5805 
   2   2.0000     -10.326631      -281.0019 
   3   2.0000     -10.302886      -280.3558 
   4   2.0000      -1.176445       -32.0127 
   5   2.0000      -1.121505       -30.5177 
   6   2.0000      -0.808215       -21.9927 
   7   2.0000      -0.783567       -21.3219 
   8   2.0000      -0.645160       -17.5557 
   9   2.0000      -0.605258       -16.4699 
  10   2.0000      -0.553933       -15.0733 
  11   2.0000      -0.550113       -14.9693 
  12   2.0000      -0.536916       -14.6102 
  13   2.0000      -0.519210       -14.1284 
  14   2.0000      -0.465920       -12.6783 
  15   2.0000      -0.409733       -11.1494 
  16   2.0000      -0.386571       -10.5191 
  17   2.0000      -0.353978        -9.6322 
  18   0.0000       0.091251         2.4831 
  19   0.0000       0.133394         3.6298 
  20   0.0000       0.156168         4.2495 
  21   0.0000       0.167394         4.5550 
  22   0.0000       0.189860         5.1663 
  23   0.0000       0.200796         5.4639 
  24   0.0000       0.213547         5.8109 
  25   0.0000       0.216144         5.8816 
  26   0.0000       0.230426         6.2702 
  27   0.0000       0.277566         7.5529 
  28   0.0000       0.290600         7.9076 
  29   0.0000       0.311715         8.4822 
  30   0.0000       0.338965         9.2237 
  31   0.0000       0.376343        10.2408 
  32   0.0000       0.400720        10.9041 
  33   0.0000       0.420095        11.4314 
  34   0.0000       0.449215        12.2237 
  35   0.0000       0.473521        12.8852 
  36   0.0000       0.482505        13.1296 
  37   0.0000       0.487875        13.2757 
  38   0.0000       0.527494        14.3538 
  39   0.0000       0.529282        14.4025 
  40   0.0000       0.551498        15.0070 
  41   0.0000       0.558831        15.2066 
  42   0.0000       0.574745        15.6396 
  43   0.0000       0.589994        16.0546 
  44   0.0000       0.612658        16.6713 
  45   0.0000       0.629937        17.1415 
  46   0.0000       0.659104        17.9351 
  47   0.0000       0.665273        18.1030 
  48   0.0000       0.718599        19.5541 
  49   0.0000       0.754358        20.5271 
  50   0.0000       0.786118        21.3914 
  51   0.0000       0.809000        22.0140 
  52   0.0000       0.813765        22.1437 
  53   0.0000       0.837076        22.7780 
  54   0.0000       0.880269        23.9533 
  55   0.0000       0.951835        25.9007 
  56   0.0000       0.988628        26.9019 
  57   0.0000       1.015558        27.6347 
  58   0.0000       1.035314        28.1723 
  59   0.0000       1.080005        29.3884 
  60   0.0000       1.111881        30.2558 
  61   0.0000       1.143718        31.1221 
  62   0.0000       1.376975        37.4694 
  63   0.0000       1.430264        38.9195 
  64   0.0000       1.474297        40.1177 
  65   0.0000       1.525888        41.5215 
  66   0.0000       1.550276        42.1852 
  67   0.0000       1.563344        42.5408 
  68   0.0000       1.576505        42.8989 
  69   0.0000       1.607572        43.7443 
  70   0.0000       1.627566        44.2883 
  71   0.0000       1.634678        44.4819 
  72   0.0000       1.637376        44.5553 
  73   0.0000       1.655979        45.0615 
  74   0.0000       1.680613        45.7318 
  75   0.0000       1.716260        46.7018 
  76   0.0000       1.739147        47.3246 
  77   0.0000       1.758303        47.8459 
  78   0.0000       1.820949        49.5506 
  79   0.0000       1.834586        49.9216 
  80   0.0000       1.954353        53.1806 
  81   0.0000       1.978476        53.8371 
  82   0.0000       2.011822        54.7445 
  83   0.0000       2.024391        55.0865 
  84   0.0000       2.045494        55.6607 
  85   0.0000       2.057357        55.9835 
  86   0.0000       2.084969        56.7349 
  87   0.0000       2.140773        58.2534 
  88   0.0000       2.166682        58.9584 
  89   0.0000       2.167620        58.9839 
  90   0.0000       2.216044        60.3016 
  91   0.0000       2.312026        62.9134 
  92   0.0000       2.325518        63.2806 
  93   0.0000       2.350003        63.9468 
  94   0.0000       2.380334        64.7722 
  95   0.0000       2.390782        65.0565 
  96   0.0000       2.420570        65.8671 
  97   0.0000       2.457386        66.8689 
  98   0.0000       2.466132        67.1069 
  99   0.0000       2.501003        68.0558 
 100   0.0000       2.518009        68.5185 
 101   0.0000       2.540293        69.1249 
 102   0.0000       2.595268        70.6208 
 103   0.0000       2.613901        71.1279 
 104   0.0000       2.636528        71.7436 
 105   0.0000       2.666241        72.5521 
 106   0.0000       2.712886        73.8214 
 107   0.0000       2.740355        74.5688 
 108   0.0000       2.795814        76.0780 
 109   0.0000       2.848152        77.5022 
 110   0.0000       2.900068        78.9149 
 111   0.0000       2.915933        79.3466 
 112   0.0000       2.940171        80.0061 
 113   0.0000       2.967455        80.7486 
 114   0.0000       3.017326        82.1056 
 115   0.0000       3.056985        83.1848 
 116   0.0000       3.098693        84.3197 
 117   0.0000       3.127627        85.1071 
 118   0.0000       3.163629        86.0867 
 119   0.0000       3.190709        86.8236 
 120   0.0000       3.253529        88.5330 
 121   0.0000       3.298582        89.7590 
 122   0.0000       3.329531        90.6011 
 123   0.0000       3.408928        92.7617 
 124   0.0000       3.429805        93.3297 
 125   0.0000       3.480753        94.7161 
 126   0.0000       3.522078        95.8406 
 127   0.0000       3.577586        97.3511 
 128   0.0000       3.604945        98.0956 
 129   0.0000       3.625776        98.6624 
 130   0.0000       3.654247        99.4371 
 131   0.0000       3.678593       100.0996 
 132   0.0000       3.691877       100.4611 
 133   0.0000       3.706582       100.8612 
 134   0.0000       4.024374       109.5088 
 135   0.0000       4.047520       110.1386 
 136   0.0000       4.219270       114.8122 
 137   0.0000       4.244116       115.4883 
 138   0.0000       4.303452       117.1029 
 139   0.0000       4.349574       118.3579 
 140   0.0000       4.380826       119.2083 
 141   0.0000       4.453729       121.1921 
 142   0.0000       4.501318       122.4871 
 143   0.0000       4.598022       125.1186 
 144   0.0000       5.367592       146.0596 
 145   0.0000       5.381397       146.4353 
 146   0.0000       5.427194       147.6815 
 147   0.0000       5.488697       149.3550 
 148   0.0000       5.507348       149.8626 
 149   0.0000       5.620707       152.9472 
 150   0.0000       5.727186       155.8446 
 151   0.0000       5.865043       159.5959 
 152   0.0000       5.892979       160.3561 
 153   0.0000       5.906375       160.7206 
 154   0.0000       6.011495       163.5811 
 155   0.0000       6.068427       165.1303 
 156   0.0000       6.255820       170.2295 
 157   0.0000       6.393553       173.9774 
 158   0.0000       6.541608       178.0062 
 159   0.0000       6.577061       178.9709 
 160   0.0000       6.760656       183.9668 
 161   0.0000       6.783562       184.5901 
 162   0.0000       6.808996       185.2822 
 163   0.0000       6.864325       186.7878 
 164   0.0000       6.970845       189.6863 
 165   0.0000       7.085018       192.7931 
 166   0.0000       7.181782       195.4262 
 167   0.0000       7.280725       198.1186 
 168   0.0000      22.470965       611.4660 
 169   0.0000      22.503271       612.3451 
 170   0.0000      43.653387      1187.8690 
 171   0.0000      43.786973      1191.5041 

                    ********************************
                    * MULLIKEN POPULATION ANALYSIS *
                    ********************************

-----------------------
MULLIKEN ATOMIC CHARGES
-----------------------
   0 C :   -0.161247
   1 O :   -0.478947
   2 H :    0.326526
   3 H :    0.099468
   4 H :    0.112381
   5 H :    0.091308
   6 C :   -0.203213
   7 O :   -0.469043
   8 H :    0.334443
   9 H :    0.115414
  10 H :    0.124778
  11 H :    0.108133
Sum of atomic charges:   -0.0000000

--------------------------------
MULLIKEN REDUCED ORBITAL CHARGES
--------------------------------
  0 C s       :     3.221444  s :     3.221444
      pz      :     0.982601  p :     2.826835
      px      :     0.819224
      py      :     1.025010
      dz2     :     0.017939  d :     0.104822
      dxz     :     0.020836
      dyz     :     0.019879
      dx2y2   :     0.024046
      dxy     :     0.022121
      f0      :     0.000284  f :     0.008146
      f+1     :     0.001837
      f-1     :     0.000554
      f+2     :     0.001046
      f-2     :     0.001783
      f+3     :     0.001985
      f-3     :     0.000657
  1 O s       :     3.769624  s :     3.769624
      pz      :     1.675205  p :     4.678966
      px      :     1.511494
      py      :     1.492267
      dz2     :     0.003081  d :     0.028601
      dxz     :     0.007729
      dyz     :     0.007240
      dx2y2   :     0.006331
      dxy     :     0.004220
      f0      :     0.000190  f :     0.001757
      f+1     :     0.000151
      f-1     :     0.000067
      f+2     :     0.000301
      f-2     :     0.000355
      f+3     :     0.000363
      f-3     :     0.000330
  2 H s       :     0.621048  s :     0.621048
      pz      :     0.016088  p :     0.052427
      px      :     0.015631
      py      :     0.020708
  3 H s       :     0.880474  s :     0.880474
      pz      :     0.004847  p :     0.020058
      px      :     0.006410
      py      :     0.008801
  4 H s       :     0.868916  s :     0.868916
      pz      :     0.005807  p :     0.018703
      px      :     0.006108
      py      :     0.006789
  5 H s       :     0.888490  s :     0.888490
      pz      :     0.009716  p :     0.020201
      px      :     0.003782
      py      :     0.006703
  6 C s       :     3.215290  s :     3.215290
      pz      :     0.950868  p :     2.877056
      px      :     0.889810
      py      :     1.036378
      dz2     :     0.027227  d :     0.102828
      dxz     :     0.016084
      dyz     :     0.011212
      dx2y2   :     0.025188
      dxy     :     0.023118
      f0      :     0.000644  f :     0.008039
      f+1     :     0.001698
      f-1     :     0.000455
      f+2     :     0.001430
      f-2     :     0.001376
      f+3     :     0.001458
      f-3     :     0.000978
  7 O s       :     3.824923  s :     3.824923
      pz      :     1.486415  p :     4.609500
      px      :     1.511576
      py      :     1.611509
      dz2     :     0.005508  d :     0.033006
      dxz     :     0.010498
      dyz     :     0.009535
      dx2y2   :     0.003566
      dxy     :     0.003898
      f0      :     0.000048  f :     0.001614
      f+1     :     0.000195
      f-1     :     0.000213
      f+2     :     0.000179
      f-2     :     0.000475
      f+3     :     0.000233
      f-3     :     0.000270
  8 H s       :     0.621289  s :     0.621289
      pz      :     0.014484  p :     0.044268
      px      :     0.013976
      py      :     0.015808
  9 H s       :     0.863951  s :     0.863951
      pz      :     0.012057  p :     0.020635
      px      :     0.003813
      py      :     0.004765
 10 H s       :     0.855742  s :     0.855742
      pz      :     0.004256  p :     0.019480
      px      :     0.005131
      py      :     0.010092
 11 H s       :     0.871145  s :     0.871145
      pz      :     0.004547  p :     0.020723
      px      :     0.009362
      py      :     0.006814


                     *******************************
                     * LOEWDIN POPULATION ANALYSIS *
                     *******************************

----------------------
LOEWDIN ATOMIC CHARGES
----------------------
   0 C :   -0.408735
   1 O :   -0.061402
   2 H :    0.153658
   3 H :    0.089166
   4 H :    0.113889
   5 H :    0.085198
   6 C :   -0.434733
   7 O :   -0.042833
   8 H :    0.201472
   9 H :    0.096382
  10 H :    0.117313
  11 H :    0.090625

-------------------------------
LOEWDIN REDUCED ORBITAL CHARGES
-------------------------------
  0 C s       :     2.857486  s :     2.857486
      pz      :     1.046095  p :     3.055789
      px      :     0.938283
      py      :     1.071411
      dz2     :     0.061846  d :     0.433927
      dxz     :     0.097282
      dyz     :     0.090930
      dx2y2   :     0.078441
      dxy     :     0.105428
      f0      :     0.005253  f :     0.061532
      f+1     :     0.012799
      f-1     :     0.003642
      f+2     :     0.007923
      f-2     :     0.008705
      f+3     :     0.015550
      f-3     :     0.007662
  1 O s       :     3.334535  s :     3.334535
      pz      :     1.654290  p :     4.650120
      px      :     1.518229
      py      :     1.477601
      dz2     :     0.007934  d :     0.072049
      dxz     :     0.017689
      dyz     :     0.013867
      dx2y2   :     0.017678
      dxy     :     0.014880
      f0      :     0.000388  f :     0.004698
      f+1     :     0.000680
      f-1     :     0.000184
      f+2     :     0.001091
      f-2     :     0.000855
      f+3     :     0.000867
      f-3     :     0.000633
  2 H s       :     0.675544  s :     0.675544
      pz      :     0.055794  p :     0.170798
      px      :     0.042399
      py      :     0.072606
  3 H s       :     0.847960  s :     0.847960
      pz      :     0.015507  p :     0.062873
      px      :     0.019754
      py      :     0.027613
  4 H s       :     0.833796  s :     0.833796
      pz      :     0.017325  p :     0.052315
      px      :     0.016382
      py      :     0.018608
  5 H s       :     0.851795  s :     0.851795
      pz      :     0.029917  p :     0.063007
      px      :     0.012393
      py      :     0.020697
  6 C s       :     2.847739  s :     2.847739
      pz      :     1.027767  p :     3.073825
      px      :     0.971490
      py      :     1.074568
      dz2     :     0.105221  d :     0.450430
      dxz     :     0.089071
      dyz     :     0.062775
      dx2y2   :     0.084833
      dxy     :     0.108531
      f0      :     0.005304  f :     0.062739
      f+1     :     0.012565
      f-1     :     0.004632
      f+2     :     0.012206
      f-2     :     0.010198
      f+3     :     0.010313
      f-3     :     0.007521
  7 O s       :     3.368766  s :     3.368766
      pz      :     1.529234  p :     4.591644
      px      :     1.503182
      py      :     1.559228
      dz2     :     0.011141  d :     0.077055
      dxz     :     0.022477
      dyz     :     0.017611
      dx2y2   :     0.012045
      dxy     :     0.013781
      f0      :     0.000349  f :     0.005367
      f+1     :     0.001149
      f-1     :     0.000794
      f+2     :     0.000777
      f-2     :     0.001180
      f+3     :     0.000631
      f-3     :     0.000488
  8 H s       :     0.651354  s :     0.651354
      pz      :     0.058919  p :     0.147173
      px      :     0.039057
      py      :     0.049197
  9 H s       :     0.839625  s :     0.839625
      pz      :     0.035516  p :     0.063994
      px      :     0.012749
      py      :     0.015729
 10 H s       :     0.828099  s :     0.828099
      pz      :     0.013223  p :     0.054588
      px      :     0.013606
      py      :     0.027758
 11 H s       :     0.845416  s :     0.845416
      pz      :     0.014116  p :     0.063958
      px      :     0.027941
      py      :     0.021902


                      *****************************
                      * MAYER POPULATION ANALYSIS *
                      *****************************

  NA   - Mulliken gross atomic population
  ZA   - Total nuclear charge
  QA   - Mulliken gross atomic charge
  VA   - Mayer's total valence
  BVA  - Mayer's bonded valence
  FA   - Mayer's free valence

  ATOM       NA         ZA         QA         VA         BVA        FA
  0 C      6.1612     6.0000    -0.1612     3.9605     3.9605    -0.0000
  1 O      8.4789     8.0000    -0.4789     1.8659     1.8659     0.0000
  2 H      0.6735     1.0000     0.3265     0.9294     0.9294     0.0000
  3 H      0.9005     1.0000     0.0995     0.9614     0.9614    -0.0000
  4 H      0.8876     1.0000     0.1124     0.9614     0.9614    -0.0000
  5 H      0.9087     1.0000     0.0913     0.9488     0.9488    -0.0000
  6 C      6.2032     6.0000    -0.2032     3.9131     3.9131    -0.0000
  7 O      8.4690     8.0000    -0.4690     1.8953     1.8953    -0.0000
  8 H      0.6656     1.0000     0.3344     0.8989     0.8989    -0.0000
  9 H      0.8846     1.0000     0.1154     0.9633     0.9633    -0.0000
 10 H      0.8752     1.0000     0.1248     0.9645     0.9645    -0.0000
 11 H      0.8919     1.0000     0.1081     0.9400     0.9400    -0.0000

  Mayer bond orders larger than 0.1
B(  0-C ,  1-O ) :   1.0024 B(  0-C ,  3-H ) :   0.9931 B(  0-C ,  4-H ) :   0.9695 
B(  0-C ,  5-H ) :   0.9733 B(  1-O ,  2-H ) :   0.8770 B(  6-C ,  7-O ) :   0.9714 
B(  6-C ,  9-H ) :   0.9791 B(  6-C , 10-H ) :   0.9751 B(  6-C , 11-H ) :   0.9695 
B(  7-O ,  8-H ) :   0.8856 

-------
TIMINGS
-------

Total SCF time: 0 days 0 hours 0 min 19 sec 

Total time                  ....      19.188 sec
Sum of individual times     ....      18.615 sec  ( 97.0%)

Fock matrix formation       ....      17.920 sec  ( 93.4%)
  XC integration            ....       7.072 sec  ( 39.5% of F)
    Basis function eval.    ....       0.069 sec  (  1.0% of XC)
    Density eval.           ....       0.099 sec  (  1.4% of XC)
    XC-Functional eval.     ....       0.104 sec  (  1.5% of XC)
    XC-Potential eval.      ....       0.082 sec  (  1.2% of XC)
Diagonalization             ....       0.129 sec  (  0.7%)
Density matrix formation    ....       0.008 sec  (  0.0%)
Population analysis         ....       0.033 sec  (  0.2%)
Initial guess               ....       0.118 sec  (  0.6%)
Orbital Transformation      ....       0.000 sec  (  0.0%)
Orbital Orthonormalization  ....       0.000 sec  (  0.0%)
DIIS solution               ....       0.058 sec  (  0.3%)
SOSCF solution              ....       0.052 sec  (  0.3%)
Grid generation             ....       0.297 sec  (  1.5%)


-------------------------------------------------------------------------------
                          DFT DISPERSION CORRECTION                            
                                                                               
                              DFTD3 V3.1  Rev 1                                
                              USING zero damping                               
-------------------------------------------------------------------------------
The omegaB97X-D3 functional is recognized. Fit by Chai et al.
Active option DFTDOPT                   ...         3   

molecular C6(AA) [au] = 834.688906 


            DFT-D V3
 parameters
 s6 scaling factor         :     1.0000 
 rs6 scaling factor        :     1.2810 
 s8 scaling factor         :     1.0000 
 rs8 scaling factor        :     1.0940 
 Damping factor alpha6     :    14.0000 
 Damping factor alpha8     :    16.0000 
 ad hoc parameters k1-k3   :    16.0000     1.3333    -4.0000 

 Edisp/kcal,au: -1.332754089522  -0.002123878607 
 E6   /kcal   :  -0.594450024 
 E8   /kcal   :  -0.738304066 
 % E8         :  55.396871141 

-------------------------   ----------------
Dispersion correction           -0.002123879
-------------------------   ----------------


-------------------------   --------------------
FINAL SINGLE POINT ENERGY      -231.465429985642
-------------------------   --------------------


                            ***************************************
                            *     ORCA property calculations      *
                            ***************************************

                                    ---------------------
                                    Active property flags
                                    ---------------------
   (+) Dipole Moment


------------------------------------------------------------------------------
                       ORCA ELECTRIC PROPERTIES CALCULATION
------------------------------------------------------------------------------

Dipole Moment Calculation                       ... on
Quadrupole Moment Calculation                   ... off
Polarizability Calculation                      ... off
GBWName                                         ... 20-174_DFT_AB.gbw
Electron density file                           ... 20-174_DFT_AB.scfp.tmp
The origin for moment calculation is the CENTER OF MASS  = (-2.871642, -6.072534 -17.249564)

-------------
DIPOLE MOMENT
-------------
                                X             Y             Z
Electronic contribution:      3.03093       0.03894      -2.04639
Nuclear contribution   :     -3.23318       0.24163       3.41198
                        -----------------------------------------
Total Dipole Moment    :     -0.20225       0.28057       1.36559
                        -----------------------------------------
Magnitude (a.u.)       :      1.40871
Magnitude (Debye)      :      3.58066



--------------------
Rotational spectrum 
--------------------
 
Rotational constants in cm-1:     0.463769     0.087141     0.077731 
Rotational constants in MHz : 13903.454677  2612.434237  2330.309359 

 Dipole components along the rotational axes: 
x,y,z [a.u.] :     0.899500     0.953311     0.516295 
x,y,z [Debye]:     2.286347     2.423125     1.312317 

 
------------------------------------------------------------------------------
                      ORCA CHELPG CHARGES GENERATION
------------------------------------------------------------------------------

GBW file                           ... 20-174_DFT_AB.gbw

Reading the GBW file               ... done

Grid spacing                       ...     0.300000
Point Cut-Off                      ...     2.800000
Van-der-Waals Radii                ...        COSMO
Total charge                       ...            0


Number of points X direction       ...           30
Number of points Y direction       ...           33
Number of points Z direction       ...           31
Maximum number of possible points  ...        30690
Final number of points             ...         9449


CHELPG Charges            
--------------------------------
  0   C   :       0.247787
  1   O   :      -0.702963
  2   H   :       0.479154
  3   H   :      -0.041667
  4   H   :       0.033903
  5   H   :      -0.026461
  6   C   :       0.173472
  7   O   :      -0.621415
  8   H   :       0.419590
  9   H   :      -0.007774
 10   H   :       0.049495
 11   H   :      -0.003122
--------------------------------
Total charge:    -0.000000
--------------------------------

CHELPG charges calculated...

Timings for individual parts in CHELPG calculation:
Grid generation                 ...        0.001 sec (=   0.000 min)
Potential calculation           ...        2.105 sec (=   0.035 min)
Fit to the potential            ...        0.003 sec (=   0.000 min)
------------------------------------------------------------------------------


Timings for individual modules:

Sum of individual times         ...       27.363 sec (=   0.456 min)
GTO integral calculation        ...        3.661 sec (=   0.061 min)  13.4 %
SCF iterations                  ...       21.562 sec (=   0.359 min)  78.8 %
CHELPG charge generation        ...        2.140 sec (=   0.036 min)   7.8 %


                 $$$$$$$$$$$$$$$$  JOB NUMBER  2 $$$$$$$$$$$$$$


                       ****************************
                       * Single Point Calculation *
                       ****************************

---------------------------------
CARTESIAN COORDINATES (ANGSTROEM)
---------------------------------
  C     -2.839331   -4.624066   -9.836446
  O     -1.719104   -4.080360  -10.454234
  H     -1.376392   -3.306859  -10.009354
  H     -3.438690   -3.787081   -9.526616
  H     -3.493645   -5.294238  -10.487949
  H     -2.562493   -5.181358   -8.961584
  C     -1.280630   -1.801478   -7.755175
  O     -0.290608   -2.363791   -8.530662
  H      0.134370   -2.922786   -7.844523
  H     -1.015704   -1.612468   -6.726996
  H     -1.746355   -0.885529   -8.222018
  H     -2.120418   -2.459426   -7.597261

----------------------------
CARTESIAN COORDINATES (A.U.)
----------------------------
  NO LB      ZA    FRAG     MASS         X           Y           Z
   0 C     6.0000    0    12.011   -5.365558   -8.738218  -18.588189
   1 O     8.0000    0    15.999   -3.248636   -7.710763  -19.755639
   2 H     1.0000    0     1.008   -2.601004   -6.249058  -18.914938
   3 H     1.0000    0     1.008   -6.498182   -7.156546  -18.002695
   4 H     1.0000    0     1.008   -6.602032  -10.004660  -19.819351
   5 H     1.0000    0     1.008   -4.842410   -9.791348  -16.934939
   6 C     0.0000    0     0.000   -2.420040   -3.404300  -14.655157
   7 O     0.0000    0     0.000   -0.549170   -4.466918  -16.120615
   8 H     0.0000    0     0.000    0.253923   -5.523265  -14.824000
   9 H     0.0000    0     0.000   -1.919402   -3.047123  -12.712180
  10 H     0.0000    0     0.000   -3.300133   -1.673407  -15.537362
  11 H     0.0000    0     0.000   -4.007009   -4.647642  -14.356743

--------------------------------
INTERNAL COORDINATES (ANGSTROEM)
--------------------------------
 C      0   0   0     0.000000000000     0.00000000     0.00000000
 O      1   0   0     1.390031207890     0.00000000     0.00000000
 H      2   1   0     0.955862713126   113.49159878     0.00000000
 H      1   2   3     1.075067314174   105.83444031    40.28944392
 H      1   2   3     1.140926587993   115.98564618   159.47461427
 H      1   2   3     1.073590783563   110.94077123   283.09957357
 C      3   2   1     2.712317326539   148.05925243    17.75368872
 O      7   3   2     1.377577423458    48.00789035   126.35515207
 H      8   7   3     0.981768016300    98.63149565   238.81333690
 H      7   3   2     1.078453810609   153.93443374    67.57933680
 H      7   3   2     1.128629581783    95.28384953   243.12735906
 H      7   3   2     1.078460146247    75.85331973   345.80173147

---------------------------
INTERNAL COORDINATES (A.U.)
---------------------------
 C      0   0   0     0.000000000000     0.00000000     0.00000000
 O      1   0   0     2.626778300516     0.00000000     0.00000000
 H      2   1   0     1.806318749435   113.49159878     0.00000000
 H      1   2   3     2.031582799320   105.83444031    40.28944392
 H      1   2   3     2.156038790216   115.98564618   159.47461427
 H      1   2   3     2.028792560837   110.94077123   283.09957357
 C      3   2   1     5.125536935449   148.05925243    17.75368872
 O      7   3   2     2.603244058609    48.00789035   126.35515207
 H      8   7   3     1.855272677850    98.63149565   238.81333690
 H      7   3   2     2.037982350135   153.93443374    67.57933680
 H      7   3   2     2.132800816211    95.28384953   243.12735906
 H      7   3   2     2.037994322756    75.85331973   345.80173147

---------------------
BASIS SET INFORMATION
---------------------
There are 3 groups of distinct atoms

 Group   1 Type C   : 11s6p2d1f contracted to 5s3p2d1f pattern {62111/411/11/1}
 Group   2 Type O   : 11s6p2d1f contracted to 5s3p2d1f pattern {62111/411/11/1}
 Group   3 Type H   : 5s1p contracted to 3s1p pattern {311/1}

Atom   0C    basis set group =>   1
Atom   1O    basis set group =>   2
Atom   2H    basis set group =>   3
Atom   3H    basis set group =>   3
Atom   4H    basis set group =>   3
Atom   5H    basis set group =>   3
Atom   6C    basis set group =>   1
Atom   7O    basis set group =>   2
Atom   8H    basis set group =>   3
Atom   9H    basis set group =>   3
Atom  10H    basis set group =>   3
Atom  11H    basis set group =>   3


           ************************************************************
           *        Program running with 8 parallel MPI-processes     *
           *              working on a common directory               *
           ************************************************************
------------------------------------------------------------------------------
                           ORCA GTO INTEGRAL CALCULATION
------------------------------------------------------------------------------

                         BASIS SET STATISTICS AND STARTUP INFO

 # of primitive gaussian shells          ...  128
 # of primitive gaussian functions       ...  248
 # of contracted shells                  ...   76
 # of contracted basis functions         ...  172
 Highest angular momentum                ...    3
 Maximum contraction depth               ...    6
 Integral package used                   ... LIBINT
 Integral threshhold            Thresh   ...  2.500e-11
 Primitive cut-off              TCut     ...  2.500e-12


------------------------------ INTEGRAL EVALUATION ----------------------------


 * One electron integrals 
 Pre-screening matrix                    ... done
 Shell pair data                         ... done (   0.001 sec)



           ************************************************************
           *        Program running with 8 parallel MPI-processes     *
           *              working on a common directory               *
           ************************************************************
-------------------------------------------------------------------------------
                                 ORCA SCF
-------------------------------------------------------------------------------

------------
SCF SETTINGS
------------
Hamiltonian:
 Density Functional     Method          .... DFT(GTOs)
 Exchange Functional    Exchange        .... WB97X-D3
 Correlation Functional Correlation     .... WB97X-D3
 Gradients option       PostSCFGGA      .... off
 Hybrid DFT is turned on
   Fraction HF Exchange ScalHFX         ....  0.195728
   Scaling of DF-GGA-X  ScalDFX         ....  0.000000
   Scaling of DF-GGA-C  ScalDFC         ....  1.000000
   Scaling of DF-LDA-C  ScalLDAC        ....  1.000000
   Perturbative correction              ....  0.000000
   Density functional embedding theory  .... OFF
 Long-range corrected/Screened/Range-Separated Hybrid DFT is turned on
   Amount of maximum screened exact exchange              ....  0.804272
   Range separation parameter mu (erf(mu*r12)/r12)        ....  0.250000


General Settings:
 Integral files         IntName         .... 20-174_DFT_A
 Hartree-Fock type      HFTyp           .... RHF
 Total Charge           Charge          ....    0
 Multiplicity           Mult            ....    1
 Number of Electrons    NEL             ....   18
 Basis Dimension        Dim             ....  172
 Nuclear Repulsion      ENuc            ....     40.7262211712 Eh

Convergence Acceleration:
 DIIS                   CNVDIIS         .... on
   Start iteration      DIISMaxIt       ....    12
   Startup error        DIISStart       ....  0.200000
   # of expansion vecs  DIISMaxEq       ....     5
   Bias factor          DIISBfac        ....   1.050
   Max. coefficient     DIISMaxC        ....  10.000
 Newton-Raphson         CNVNR           .... off
 SOSCF                  CNVSOSCF        .... on
   Start iteration      SOSCFMaxIt      ....   150
   Startup grad/error   SOSCFStart      ....  0.003300
 Level Shifting         CNVShift        .... on
   Level shift para.    LevelShift      ....    0.2500
   Turn off err/grad.   ShiftErr        ....    0.0010
 Zerner damping         CNVZerner       .... off
 Static damping         CNVDamp         .... on
   Fraction old density DampFac         ....    0.7000
   Max. Damping (<1)    DampMax         ....    0.9800
   Min. Damping (>=0)   DampMin         ....    0.0000
   Turn off err/grad.   DampErr         ....    0.1000
 Fernandez-Rico         CNVRico         .... off

SCF Procedure:
 Maximum # iterations   MaxIter         ....  1000
 SCF integral mode      SCFMode         .... Direct
   Integral package                     .... LIBINT
 Reset frequency        DirectResetFreq ....    20
 Integral Threshold     Thresh          ....  2.500e-11 Eh
 Primitive CutOff       TCut            ....  2.500e-12 Eh

Convergence Tolerance:
 Convergence Check Mode ConvCheckMode   .... Total+1el-Energy
 Convergence forced     ConvForced      .... 0
 Energy Change          TolE            ....  1.000e-08 Eh
 1-El. energy change                    ....  1.000e-05 Eh
 Orbital Gradient       TolG            ....  1.000e-05
 Orbital Rotation angle TolX            ....  1.000e-05
 DIIS Error             TolErr          ....  5.000e-07


Diagonalization of the overlap matrix:
Smallest eigenvalue                        ... 1.370e-03
Time for diagonalization                   ...    0.004 sec
Threshold for overlap eigenvalues          ... 1.000e-08
Number of eigenvalues below threshold      ... 0
Time for construction of square roots      ...    0.005 sec
Total time needed                          ...    0.010 sec

-------------------
DFT GRID GENERATION
-------------------

General Integration Accuracy     IntAcc      ...  4.340
Radial Grid Type                 RadialGrid  ... Gauss-Chebyshev
Angular Grid (max. acc.)         AngularGrid ... Lebedev-110
Angular grid pruning method      GridPruning ... 3 (G Style)
Weight generation scheme         WeightScheme... Becke
Basis function cutoff            BFCut       ...    1.0000e-11
Integration weight cutoff        WCut        ...    1.0000e-14
Grids for H and He will be reduced by one unit

# of grid points (after initial pruning)     ...  13096 (   0.0 sec)
# of grid points (after weights+screening)   ...  12426 (   0.0 sec)
nearest neighbour list constructed           ...    0.0 sec
Grid point re-assignment to atoms done       ...    0.0 sec
Grid point division into batches done        ...    0.0 sec
Reduced shell lists constructed in    0.0 sec

Total number of grid points                  ...    12426
Total number of batches                      ...      201
Average number of points per batch           ...       61
Average number of grid points per atom       ...     1036
Average number of shells per batch           ...    53.30 (70.13%)
Average number of basis functions per batch  ...   118.93 (69.14%)
Average number of large shells per batch     ...    42.85 (80.40%)
Average number of large basis fcns per batch ...    94.78 (79.69%)
Maximum spatial batch extension              ...  17.29, 19.49, 16.15 au
Average spatial batch extension              ...   0.43,  0.42,  0.40 au

Time for grid setup =    0.039 sec

------------------------------
INITIAL GUESS: MODEL POTENTIAL
------------------------------
Loading Hartree-Fock densities                     ... done
Calculating cut-offs                               ... done
Setting up the integral package                    ... done
Initializing the effective Hamiltonian             ... done
Starting the Coulomb interaction                   ... done (   0.0 sec)
Reading the grid                                   ... done
Mapping shells                                     ... done
Starting the XC term evaluation                    ... done (   0.0 sec)
  promolecular density results
     # of electrons  =     18.000233079
     EX              =    -14.437077008
     EC              =     -0.575993025
     EX+EC           =    -15.013070033
Transforming the Hamiltonian                       ... done (   0.0 sec)
Diagonalizing the Hamiltonian                      ... done (   0.0 sec)
Back transforming the eigenvectors                 ... done (   0.0 sec)
Now organizing SCF variables                       ... done
                      ------------------
                      INITIAL GUESS DONE (   0.1 sec)
                      ------------------
--------------
SCF ITERATIONS
--------------
ITER       Energy         Delta-E        Max-DP      RMS-DP      [F,P]     Damp
               ***  Starting incremental Fock matrix formation  ***
  0   -115.6412038679   0.000000000000 0.03627636  0.00076245  0.2482431 0.7000
  1   -115.6797160204  -0.038512152547 0.02141107  0.00054285  0.1239719 0.7000
                               ***Turning on DIIS***
  2   -115.6973760728  -0.017660052403 0.03074877  0.00097689  0.0481536 0.0000
  3   -115.7260026233  -0.028626550469 0.01728722  0.00035921  0.0597080 0.0000
  4   -115.7307599470  -0.004757323723 0.00407082  0.00007105  0.0061142 0.0000
                      *** Initiating the SOSCF procedure ***
                           *** Shutting down DIIS ***
                      *** Re-Reading the Fockian *** 
                      *** Removing any level shift *** 
ITER      Energy       Delta-E        Grad      Rot      Max-DP    RMS-DP
  5   -115.73085144  -0.0000914971  0.000422  0.000422  0.000705  0.000025
               *** Restarting incremental Fock matrix formation ***
  6   -115.73085972  -0.0000082782  0.000135  0.000182  0.000428  0.000015
  7   -115.73086053  -0.0000008057  0.000048  0.000100  0.000210  0.000007
  8   -115.73086059  -0.0000000615  0.000028  0.000020  0.000045  0.000001
  9   -115.73086061  -0.0000000189  0.000010  0.000007  0.000020  0.000001
                  ***Gradient check signals convergence***
              ***Rediagonalizing the Fockian in SOSCF/NRSCF***

               *****************************************************
               *                     SUCCESS                       *
               *           SCF CONVERGED AFTER  10 CYCLES          *
               *****************************************************

Setting up the final grid:

General Integration Accuracy     IntAcc      ...  4.670
Radial Grid Type                 RadialGrid  ... Gauss-Chebyshev
Angular Grid (max. acc.)         AngularGrid ... Lebedev-302
Angular grid pruning method      GridPruning ... 3 (G Style)
Weight generation scheme         WeightScheme... Becke
Basis function cutoff            BFCut       ...    1.0000e-11
Integration weight cutoff        WCut        ...    1.0000e-14
Grids for H and He will be reduced by one unit

# of grid points (after initial pruning)     ...  52000 (   0.0 sec)
# of grid points (after weights+screening)   ...  48894 (   0.0 sec)
nearest neighbour list constructed           ...    0.0 sec
Grid point re-assignment to atoms done       ...    0.0 sec
Grid point division into batches done        ...    0.2 sec
Reduced shell lists constructed in    0.2 sec

Total number of grid points                  ...    48894
Total number of batches                      ...      771
Average number of points per batch           ...       63
Average number of grid points per atom       ...     4074
Average number of shells per batch           ...    50.29 (66.17%)
Average number of basis functions per batch  ...   110.98 (64.52%)
Average number of large shells per batch     ...    40.50 (80.54%)
Average number of large basis fcns per batch ...    89.42 (80.57%)
Maximum spatial batch extension              ...  14.01, 14.01, 15.42 au
Average spatial batch extension              ...   0.26,  0.27,  0.27 au

Final grid set up in    0.3 sec
Final integration                            ... done (   0.2 sec)
Change in XC energy                          ...     0.000118089
Integrated number of electrons               ...    17.999970183
Previous integrated no of electrons          ...    18.001933809

----------------
TOTAL SCF ENERGY
----------------

Total Energy       :         -115.73074252 Eh           -3149.19361 eV

Components:
Nuclear Repulsion  :           40.72622117 Eh            1108.21682 eV
Electronic Energy  :         -156.45696369 Eh           -4257.41042 eV
One Electron Energy:         -237.84833416 Eh           -6472.18221 eV
Two Electron Energy:           81.39137046 Eh            2214.77179 eV

Virial components:
Potential Energy   :         -231.00586315 Eh           -6285.98911 eV
Kinetic Energy     :          115.27512063 Eh            3136.79550 eV
Virial Ratio       :            2.00395247


DFT components:
N(Alpha)           :        8.999985091741 electrons
N(Beta)            :        8.999985091741 electrons
N(Total)           :       17.999970183481 electrons
E(XC)              :      -10.661527905996 Eh       
DFET-embed. en.    :        0.000000000000 Eh       

---------------
SCF CONVERGENCE
---------------

  Last Energy change         ...   -1.5501e-09  Tolerance :   1.0000e-08
  Last MAX-Density change    ...    5.0852e-06  Tolerance :   1.0000e-07
  Last RMS-Density change    ...    1.3095e-07  Tolerance :   5.0000e-09
  Last Orbital Gradient      ...    1.9075e-06  Tolerance :   1.0000e-05
  Last Orbital Rotation      ...    2.2552e-06  Tolerance :   1.0000e-05

             **** THE GBW FILE WAS UPDATED (20-174_DFT_A.gbw) ****
             **** DENSITY FILE WAS UPDATED (20-174_DFT_A.scfp.tmp) ****
             **** ENERGY FILE WAS UPDATED (20-174_DFT_A.en.tmp) ****
----------------
ORBITAL ENERGIES
----------------

  NO   OCC          E(Eh)            E(eV) 
   0   2.0000     -19.226472      -523.1789 
   1   2.0000     -10.312766      -280.6246 
   2   2.0000      -1.141153       -31.0524 
   3   2.0000      -0.796212       -21.6660 
   4   2.0000      -0.616804       -16.7841 
   5   2.0000      -0.548212       -14.9176 
   6   2.0000      -0.532572       -14.4920 
   7   2.0000      -0.420464       -11.4414 
   8   2.0000      -0.371078       -10.0975 
   9   0.0000       0.068365         1.8603 
  10   0.0000       0.143688         3.9099 
  11   0.0000       0.144119         3.9217 
  12   0.0000       0.156560         4.2602 
  13   0.0000       0.196603         5.3498 
  14   0.0000       0.206864         5.6290 
  15   0.0000       0.218011         5.9324 
  16   0.0000       0.226034         6.1507 
  17   0.0000       0.253058         6.8861 
  18   0.0000       0.281810         7.6684 
  19   0.0000       0.304068         8.2741 
  20   0.0000       0.328447         8.9375 
  21   0.0000       0.334072         9.0906 
  22   0.0000       0.373760        10.1705 
  23   0.0000       0.394380        10.7316 
  24   0.0000       0.418328        11.3833 
  25   0.0000       0.433148        11.7865 
  26   0.0000       0.468292        12.7429 
  27   0.0000       0.478733        13.0270 
  28   0.0000       0.528973        14.3941 
  29   0.0000       0.557545        15.1716 
  30   0.0000       0.563248        15.3268 
  31   0.0000       0.570727        15.5303 
  32   0.0000       0.576729        15.6936 
  33   0.0000       0.619646        16.8614 
  34   0.0000       0.646752        17.5990 
  35   0.0000       0.683978        18.6120 
  36   0.0000       0.711579        19.3631 
  37   0.0000       0.757175        20.6038 
  38   0.0000       0.784094        21.3363 
  39   0.0000       0.809252        22.0209 
  40   0.0000       0.825643        22.4669 
  41   0.0000       0.848890        23.0995 
  42   0.0000       0.916177        24.9304 
  43   0.0000       0.929172        25.2841 
  44   0.0000       1.004274        27.3277 
  45   0.0000       1.040432        28.3116 
  46   0.0000       1.062758        28.9191 
  47   0.0000       1.121005        30.5041 
  48   0.0000       1.150165        31.2976 
  49   0.0000       1.164683        31.6926 
  50   0.0000       1.175312        31.9819 
  51   0.0000       1.226511        33.3751 
  52   0.0000       1.245655        33.8960 
  53   0.0000       1.327249        36.1163 
  54   0.0000       1.368765        37.2460 
  55   0.0000       1.413888        38.4739 
  56   0.0000       1.474208        40.1152 
  57   0.0000       1.515088        41.2276 
  58   0.0000       1.534051        41.7436 
  59   0.0000       1.575831        42.8805 
  60   0.0000       1.608822        43.7783 
  61   0.0000       1.624546        44.2061 
  62   0.0000       1.639060        44.6011 
  63   0.0000       1.725821        46.9620 
  64   0.0000       1.736405        47.2500 
  65   0.0000       1.755546        47.7708 
  66   0.0000       1.880522        51.1716 
  67   0.0000       1.926415        52.4204 
  68   0.0000       1.939295        52.7709 
  69   0.0000       1.963042        53.4171 
  70   0.0000       1.992642        54.2225 
  71   0.0000       2.043134        55.5965 
  72   0.0000       2.103753        57.2460 
  73   0.0000       2.149343        58.4866 
  74   0.0000       2.172317        59.1117 
  75   0.0000       2.201576        59.9079 
  76   0.0000       2.237823        60.8943 
  77   0.0000       2.239257        60.9333 
  78   0.0000       2.322033        63.1857 
  79   0.0000       2.330942        63.4282 
  80   0.0000       2.364778        64.3489 
  81   0.0000       2.398782        65.2742 
  82   0.0000       2.446152        66.5632 
  83   0.0000       2.479228        67.4632 
  84   0.0000       2.521832        68.6225 
  85   0.0000       2.551647        69.4339 
  86   0.0000       2.569060        69.9077 
  87   0.0000       2.597328        70.6769 
  88   0.0000       2.650789        72.1316 
  89   0.0000       2.663274        72.4714 
  90   0.0000       2.687792        73.1386 
  91   0.0000       2.708382        73.6988 
  92   0.0000       2.780420        75.6591 
  93   0.0000       2.829745        77.0013 
  94   0.0000       2.879831        78.3642 
  95   0.0000       2.915407        79.3323 
  96   0.0000       2.990638        81.3794 
  97   0.0000       3.031924        82.5029 
  98   0.0000       3.085003        83.9472 
  99   0.0000       3.102310        84.4181 
 100   0.0000       3.118325        84.8539 
 101   0.0000       3.151952        85.7690 
 102   0.0000       3.188896        86.7743 
 103   0.0000       3.235523        88.0431 
 104   0.0000       3.289420        89.5097 
 105   0.0000       3.302752        89.8725 
 106   0.0000       3.360062        91.4319 
 107   0.0000       3.398632        92.4815 
 108   0.0000       3.434011        93.4442 
 109   0.0000       3.471098        94.4534 
 110   0.0000       3.561910        96.9245 
 111   0.0000       3.619256        98.4850 
 112   0.0000       3.641086        99.0790 
 113   0.0000       3.655625        99.4746 
 114   0.0000       3.668717        99.8309 
 115   0.0000       3.691873       100.4610 
 116   0.0000       3.822692       104.0207 
 117   0.0000       4.012732       109.1920 
 118   0.0000       4.038838       109.9024 
 119   0.0000       4.089787       111.2888 
 120   0.0000       4.233112       115.1888 
 121   0.0000       4.261009       115.9480 
 122   0.0000       4.293094       116.8210 
 123   0.0000       4.305121       117.1483 
 124   0.0000       4.371332       118.9500 
 125   0.0000       4.441730       120.8656 
 126   0.0000       4.519715       122.9877 
 127   0.0000       4.526566       123.1741 
 128   0.0000       4.561940       124.1367 
 129   0.0000       4.586743       124.8116 
 130   0.0000       4.611582       125.4875 
 131   0.0000       5.076035       138.1259 
 132   0.0000       5.100165       138.7825 
 133   0.0000       5.158357       140.3660 
 134   0.0000       5.268643       143.3671 
 135   0.0000       5.351531       145.6226 
 136   0.0000       5.408495       147.1726 
 137   0.0000       5.433141       147.8433 
 138   0.0000       5.602724       152.4579 
 139   0.0000       5.714477       155.4988 
 140   0.0000       5.863486       159.5536 
 141   0.0000       5.875417       159.8782 
 142   0.0000       5.889018       160.2483 
 143   0.0000       5.993024       163.0785 
 144   0.0000       6.112017       166.3164 
 145   0.0000       6.401166       174.1846 
 146   0.0000       6.534183       177.8042 
 147   0.0000       6.669070       181.4746 
 148   0.0000       6.746051       183.5694 
 149   0.0000       6.778825       184.4612 
 150   0.0000       6.831708       185.9002 
 151   0.0000       6.844515       186.2487 
 152   0.0000       7.018150       190.9736 
 153   0.0000       7.067106       192.3057 
 154   0.0000       7.251575       197.3254 
 155   0.0000       7.326870       199.3743 
 156   0.0000       7.510589       204.3735 
 157   0.0000       8.014831       218.0946 
 158   0.0000       8.923056       242.8087 
 159   0.0000       9.386287       255.4138 
 160   0.0000       9.479934       257.9621 
 161   0.0000       9.574868       260.5454 
 162   0.0000       9.788062       266.3467 
 163   0.0000       9.856695       268.2143 
 164   0.0000       9.962513       271.0938 
[...]
  82   0.0000       2.429172        66.1011 
  83   0.0000       2.485942        67.6459 
  84   0.0000       2.508321        68.2549 
  85   0.0000       2.528394        68.8011 
  86   0.0000       2.616370        71.1951 
  87   0.0000       2.644562        71.9622 
  88   0.0000       2.665930        72.5436 
  89   0.0000       2.678660        72.8901 
  90   0.0000       2.711591        73.7861 
  91   0.0000       2.759355        75.0859 
  92   0.0000       2.812232        76.5247 
  93   0.0000       2.862491        77.8923 
  94   0.0000       2.930264        79.7365 
  95   0.0000       2.952034        80.3289 
  96   0.0000       2.973450        80.9117 
  97   0.0000       3.000571        81.6497 
  98   0.0000       3.093158        84.1691 
  99   0.0000       3.114112        84.7393 
 100   0.0000       3.155661        85.8699 
 101   0.0000       3.158392        85.9442 
 102   0.0000       3.171915        86.3122 
 103   0.0000       3.249215        88.4156 
 104   0.0000       3.276952        89.1704 
 105   0.0000       3.313554        90.1664 
 106   0.0000       3.346014        91.0497 
 107   0.0000       3.377066        91.8946 
 108   0.0000       3.448057        93.8264 
 109   0.0000       3.484884        94.8285 
 110   0.0000       3.553942        96.7077 
 111   0.0000       3.614540        98.3566 
 112   0.0000       3.625080        98.6434 
 113   0.0000       3.652784        99.3973 
 114   0.0000       3.683426       100.2311 
 115   0.0000       3.710718       100.9738 
 116   0.0000       3.767034       102.5062 
 117   0.0000       4.055917       110.3671 
 118   0.0000       4.140382       112.6655 
 119   0.0000       4.173354       113.5627 
 120   0.0000       4.236441       115.2794 
 121   0.0000       4.285132       116.6044 
 122   0.0000       4.294172       116.8504 
 123   0.0000       4.356907       118.5575 
 124   0.0000       4.397132       119.6520 
 125   0.0000       4.404842       119.8618 
 126   0.0000       4.517767       122.9347 
 127   0.0000       4.529369       123.2504 
 128   0.0000       4.571146       124.3872 
 129   0.0000       4.586339       124.8006 
 130   0.0000       4.631412       126.0271 
 131   0.0000       5.001522       136.0983 
 132   0.0000       5.072667       138.0343 
 133   0.0000       5.166269       140.5813 
 134   0.0000       5.402819       147.0182 
 135   0.0000       5.416245       147.3835 
 136   0.0000       5.463493       148.6692 
 137   0.0000       5.514094       150.0461 
 138   0.0000       5.533112       150.5636 
 139   0.0000       5.695962       154.9950 
 140   0.0000       5.750216       156.4713 
 141   0.0000       5.888533       160.2351 
 142   0.0000       6.001472       163.3084 
 143   0.0000       6.078140       165.3946 
 144   0.0000       6.089462       165.7027 
 145   0.0000       6.277459       170.8184 
 146   0.0000       6.557898       178.4495 
 147   0.0000       6.624703       180.2673 
 148   0.0000       6.687539       181.9772 
 149   0.0000       6.801962       185.0908 
 150   0.0000       6.829856       185.8498 
 151   0.0000       6.923973       188.4109 
 152   0.0000       6.996051       190.3722 
 153   0.0000       7.204274       196.0383 
 154   0.0000       7.229552       196.7261 
 155   0.0000       7.335449       199.6077 
 156   0.0000       7.512419       204.4233 
 157   0.0000       8.175149       222.4571 
 158   0.0000       8.945924       243.4310 
 159   0.0000       9.338574       254.1155 
 160   0.0000       9.583609       260.7833 
 161   0.0000       9.642030       262.3730 
 162   0.0000       9.833954       267.5955 
 163   0.0000       9.898287       269.3461 
 164   0.0000       9.978515       271.5292 
 165   0.0000      10.177015       276.9307 
 166   0.0000      11.249330       306.1098 
 167   0.0000      19.185525       522.0647 
 168   0.0000      22.517106       612.7216 
 169   0.0000      43.676200      1188.4898 
 170   0.0000      65.980998      1795.4342 
 171   0.0000     126.499185      3442.2178 

                    ********************************
                    * MULLIKEN POPULATION ANALYSIS *
                    ********************************

-----------------------
MULLIKEN ATOMIC CHARGES
-----------------------
   0 C :    0.000641
   1 O :   -0.001796
   2 H :   -0.001030
   3 H :   -0.000303
   4 H :    0.000073
   5 H :   -0.001011
   6 C :   -0.178073
   7 O :   -0.450016
   8 H :    0.319262
   9 H :    0.104673
  10 H :    0.111325
  11 H :    0.096258
Sum of atomic charges:   -0.0000000

--------------------------------
MULLIKEN REDUCED ORBITAL CHARGES
--------------------------------
  0 C s       :    -0.000066  s :    -0.000066
      pz      :    -0.001614  p :    -0.000616
      px      :     0.001394
      py      :    -0.000395
      dz2     :     0.000002  d :     0.000041
      dxz     :    -0.000006
      dyz     :     0.000004
      dx2y2   :     0.000002
      dxy     :     0.000039
      f0      :    -0.000000  f :    -0.000000
      f+1     :     0.000000
      f-1     :     0.000000
      f+2     :    -0.000000
      f-2     :    -0.000000
      f+3     :     0.000000
      f-3     :     0.000000
  1 O s       :     0.000027  s :     0.000027
      pz      :     0.000201  p :     0.001672
      px      :     0.000764
      py      :     0.000707
      dz2     :    -0.000004  d :     0.000096
      dxz     :     0.000026
      dyz     :     0.000046
      dx2y2   :     0.000003
      dxy     :     0.000025
      f0      :     0.000000  f :     0.000001
      f+1     :     0.000000
      f-1     :     0.000000
      f+2     :     0.000000
      f-2     :     0.000001
      f+3     :     0.000000
      f-3     :     0.000000
  2 H s       :     0.000828  s :     0.000828
      pz      :     0.000040  p :     0.000202
      px      :    -0.000002
      py      :     0.000163
  3 H s       :     0.000300  s :     0.000300
      pz      :     0.000001  p :     0.000004
      px      :     0.000001
      py      :     0.000002
  4 H s       :    -0.000073  s :    -0.000073
      pz      :     0.000000  p :     0.000000
      px      :    -0.000000
      py      :     0.000000
  5 H s       :     0.001011  s :     0.001011
      pz      :    -0.000000  p :     0.000000
      px      :     0.000000
      py      :     0.000000
  6 C s       :     3.205061  s :     3.205061
      pz      :     0.939543  p :     2.859411
      px      :     0.887101
      py      :     1.032767
      dz2     :     0.027567  d :     0.105520
      dxz     :     0.016845
      dyz     :     0.011288
      dx2y2   :     0.026357
      dxy     :     0.023464
      f0      :     0.000641  f :     0.008082
      f+1     :     0.001691
      f-1     :     0.000490
      f+2     :     0.001447
      f-2     :     0.001429
      f+3     :     0.001437
      f-3     :     0.000947
  7 O s       :     3.819618  s :     3.819618
      pz      :     1.486547  p :     4.595115
      px      :     1.502708
      py      :     1.605860
      dz2     :     0.005807  d :     0.033638
      dxz     :     0.010923
      dyz     :     0.009649
      dx2y2   :     0.003419
      dxy     :     0.003840
      f0      :     0.000054  f :     0.001646
      f+1     :     0.000189
      f-1     :     0.000215
      f+2     :     0.000188
      f-2     :     0.000483
      f+3     :     0.000238
      f-3     :     0.000279
  8 H s       :     0.635954  s :     0.635954
      pz      :     0.014524  p :     0.044784
      px      :     0.014266
      py      :     0.015994
  9 H s       :     0.874931  s :     0.874931
      pz      :     0.011876  p :     0.020396
      px      :     0.003840
      py      :     0.004681
 10 H s       :     0.869228  s :     0.869228
      pz      :     0.004315  p :     0.019447
      px      :     0.005150
      py      :     0.009982
 11 H s       :     0.883031  s :     0.883031
      pz      :     0.004590  p :     0.020711
      px      :     0.009340
      py      :     0.006782


                     *******************************
                     * LOEWDIN POPULATION ANALYSIS *
                     *******************************

----------------------
LOEWDIN ATOMIC CHARGES
----------------------
   0 C :   -0.004204
   1 O :   -0.005250
   2 H :   -0.030589
   3 H :   -0.001600
   4 H :   -0.000031
   5 H :   -0.000429
   6 C :   -0.427025
   7 O :   -0.022253
   8 H :    0.194778
   9 H :    0.091751
  10 H :    0.114289
  11 H :    0.090564

-------------------------------
LOEWDIN REDUCED ORBITAL CHARGES
-------------------------------
  0 C s       :     0.000353  s :     0.000353
      pz      :     0.001340  p :     0.003748
      px      :     0.001240
      py      :     0.001168
      dz2     :     0.000007  d :     0.000102
      dxz     :     0.000010
      dyz     :     0.000048
      dx2y2   :     0.000027
      dxy     :     0.000010
      f0      :     0.000000  f :     0.000002
      f+1     :     0.000000
      f-1     :     0.000000
      f+2     :     0.000001
      f-2     :     0.000000
      f+3     :     0.000000
      f-3     :     0.000000
  1 O s       :     0.000354  s :     0.000354
      pz      :     0.002116  p :     0.004843
      px      :     0.001631
      py      :     0.001097
      dz2     :     0.000006  d :     0.000050
      dxz     :     0.000015
      dyz     :     0.000017
      dx2y2   :     0.000001
      dxy     :     0.000011
      f0      :     0.000000  f :     0.000002
      f+1     :     0.000000
      f-1     :     0.000000
      f+2     :     0.000000
      f-2     :     0.000000
      f+3     :     0.000000
      f-3     :     0.000000
  2 H s       :     0.028243  s :     0.028243
      pz      :     0.001180  p :     0.002347
      px      :     0.000824
      py      :     0.000343
  3 H s       :     0.001586  s :     0.001586
      pz      :     0.000008  p :     0.000014
      px      :     0.000003
      py      :     0.000003
  4 H s       :     0.000030  s :     0.000030
      pz      :     0.000000  p :     0.000001
      px      :     0.000000
      py      :     0.000000
  5 H s       :     0.000429  s :     0.000429
      pz      :     0.000000  p :     0.000001
      px      :     0.000000
      py      :     0.000000
  6 C s       :     2.846342  s :     2.846342
      pz      :     1.020703  p :     3.064509
      px      :     0.972051
      py      :     1.071755
      dz2     :     0.106764  d :     0.453500
      dxz     :     0.089324
      dyz     :     0.062747
      dx2y2   :     0.085846
      dxy     :     0.108818
      f0      :     0.005309  f :     0.062675
      f+1     :     0.012586
      f-1     :     0.004582
      f+2     :     0.012128
      f-2     :     0.010178
      f+3     :     0.010374
      f-3     :     0.007518
  7 O s       :     3.368467  s :     3.368467
      pz      :     1.521605  p :     4.571504
      px      :     1.496709
      py      :     1.553190
      dz2     :     0.011092  d :     0.076898
      dxz     :     0.022823
      dyz     :     0.017638
      dx2y2   :     0.011731
      dxy     :     0.013614
      f0      :     0.000356  f :     0.005385
      f+1     :     0.001127
      f-1     :     0.000799
      f+2     :     0.000783
      f-2     :     0.001204
      f+3     :     0.000625
      f-3     :     0.000491
  8 H s       :     0.657860  s :     0.657860
      pz      :     0.059004  p :     0.147362
      px      :     0.039064
      py      :     0.049294
  9 H s       :     0.844545  s :     0.844545
      pz      :     0.035074  p :     0.063704
      px      :     0.012863
      py      :     0.015766
 10 H s       :     0.831580  s :     0.831580
      pz      :     0.013235  p :     0.054131
      px      :     0.013554
      py      :     0.027341
 11 H s       :     0.845973  s :     0.845973
      pz      :     0.013875  p :     0.063464
      px      :     0.027727
      py      :     0.021861


                      *****************************
                      * MAYER POPULATION ANALYSIS *
                      *****************************

  NA   - Mulliken gross atomic population
  ZA   - Total nuclear charge
  QA   - Mulliken gross atomic charge
  VA   - Mayer's total valence
  BVA  - Mayer's bonded valence
  FA   - Mayer's free valence

  ATOM       NA         ZA         QA         VA         BVA        FA
  0 C     -0.0006     0.0000     0.0006    -0.0013    -0.0013     0.0000
  1 O      0.0018     0.0000    -0.0018     0.0036     0.0036    -0.0000
  2 H      0.0010     0.0000    -0.0010     0.0021     0.0021     0.0000
  3 H      0.0003     0.0000    -0.0003     0.0006     0.0006     0.0000
  4 H     -0.0001     0.0000     0.0001    -0.0001    -0.0001     0.0000
  5 H      0.0010     0.0000    -0.0010     0.0020     0.0020    -0.0000
  6 C      6.1781     6.0000    -0.1781     3.9338     3.9338    -0.0000
  7 O      8.4500     8.0000    -0.4500     1.9054     1.9054    -0.0000
  8 H      0.6807     1.0000     0.3193     0.9068     0.9068    -0.0000
  9 H      0.8953     1.0000     0.1047     0.9584     0.9584    -0.0000
 10 H      0.8887     1.0000     0.1113     0.9682     0.9682    -0.0000
 11 H      0.9037     1.0000     0.0963     0.9391     0.9391    -0.0000

  Mayer bond orders larger than 0.1
B(  6-C ,  7-O ) :   0.9968 B(  6-C ,  9-H ) :   0.9782 B(  6-C , 10-H ) :   0.9786 
B(  6-C , 11-H ) :   0.9739 B(  7-O ,  8-H ) :   0.8953 

-------
TIMINGS
-------

Total SCF time: 0 days 0 hours 0 min 13 sec 

Total time                  ....      13.873 sec
Sum of individual times     ....      13.454 sec  ( 97.0%)

Fock matrix formation       ....      12.765 sec  ( 92.0%)
  XC integration            ....       3.193 sec  ( 25.0% of F)
    Basis function eval.    ....       0.070 sec  (  2.2% of XC)
    Density eval.           ....       0.079 sec  (  2.5% of XC)
    XC-Functional eval.     ....       0.111 sec  (  3.5% of XC)
    XC-Potential eval.      ....       0.081 sec  (  2.5% of XC)
Diagonalization             ....       0.159 sec  (  1.1%)
Density matrix formation    ....       0.005 sec  (  0.0%)
Population analysis         ....       0.014 sec  (  0.1%)
Initial guess               ....       0.113 sec  (  0.8%)
Orbital Transformation      ....       0.000 sec  (  0.0%)
Orbital Orthonormalization  ....       0.000 sec  (  0.0%)
DIIS solution               ....       0.071 sec  (  0.5%)
SOSCF solution              ....       0.031 sec  (  0.2%)
Grid generation             ....       0.295 sec  (  2.1%)


-------------------------------------------------------------------------------
                          DFT DISPERSION CORRECTION                            
                                                                               
                              DFTD3 V3.1  Rev 1                                
                              USING zero damping                               
-------------------------------------------------------------------------------
The omegaB97X-D3 functional is recognized. Fit by Chai et al.
Active option DFTDOPT                   ...         3   

molecular C6(AA) [au] = 208.613827 


            DFT-D V3
 parameters
 s6 scaling factor         :     1.0000 
 rs6 scaling factor        :     1.2810 
 s8 scaling factor         :     1.0000 
 rs8 scaling factor        :     1.0940 
 Damping factor alpha6     :    14.0000 
 Damping factor alpha8     :    16.0000 
 ad hoc parameters k1-k3   :    16.0000     1.3333    -4.0000 

 Edisp/kcal,au: -0.135381911283  -0.000215744785 
 E6   /kcal   :  -0.026279919 
 E8   /kcal   :  -0.109101992 
 % E8         :  80.588308460 

-------------------------   ----------------
Dispersion correction           -0.000215745
-------------------------   ----------------


-------------------------   --------------------
FINAL SINGLE POINT ENERGY      -115.728142703088
-------------------------   --------------------


                            ***************************************
                            *     ORCA property calculations      *
                            ***************************************

                                    ---------------------
                                    Active property flags
                                    ---------------------
   (+) Dipole Moment


------------------------------------------------------------------------------
                       ORCA ELECTRIC PROPERTIES CALCULATION
------------------------------------------------------------------------------

Dipole Moment Calculation                       ... on
Quadrupole Moment Calculation                   ... off
Polarizability Calculation                      ... off
GBWName                                         ... 20-174_DFT_B.gbw
Electron density file                           ... 20-174_DFT_B.scfp.tmp
The origin for moment calculation is the CENTER OF MASS  = (-1.463631, -3.974965 -15.349433)

-------------
DIPOLE MOMENT
-------------
                                X             Y             Z
Electronic contribution:      1.45173      -0.64433      -1.25314
Nuclear contribution   :     -1.54086       0.49679       1.96365
                        -----------------------------------------
Total Dipole Moment    :     -0.08913      -0.14753       0.71051
                        -----------------------------------------
Magnitude (a.u.)       :      0.73112
Magnitude (Debye)      :      1.85835



--------------------
Rotational spectrum 
--------------------
 
Rotational constants in cm-1:     4.316607     0.874941     0.822862 
Rotational constants in MHz : 129408.611810 26230.081031 24668.771915 

 Dipole components along the rotational axes: 
x,y,z [a.u.] :    -0.371322     0.629350     0.023852 
x,y,z [Debye]:    -0.943826     1.599680     0.060627 

 
------------------------------------------------------------------------------
                      ORCA CHELPG CHARGES GENERATION
------------------------------------------------------------------------------

GBW file                           ... 20-174_DFT_B.gbw

Reading the GBW file               ... done

Grid spacing                       ...     0.300000
Point Cut-Off                      ...     2.800000
Van-der-Waals Radii                ...        COSMO
Total charge                       ...            0


Number of points X direction       ...           30
Number of points Y direction       ...           33
Number of points Z direction       ...           31
Maximum number of possible points  ...        30690
Final number of points             ...         5877


CHELPG Charges            
--------------------------------
  0   C   :       0.005813
  1   O   :      -0.004737
  2   H   :       0.002096
  3   H   :       0.001338
  4   H   :      -0.010208
  5   H   :      -0.002887
  6   C   :       0.103379
  7   O   :      -0.562738
  8   H   :       0.392154
  9   H   :      -0.000876
 10   H   :       0.061660
 11   H   :       0.015006
--------------------------------
Total charge:    -0.000000
--------------------------------

CHELPG charges calculated...

Timings for individual parts in CHELPG calculation:
Grid generation                 ...        0.001 sec (=   0.000 min)
Potential calculation           ...        1.251 sec (=   0.021 min)
Fit to the potential            ...        0.002 sec (=   0.000 min)
------------------------------------------------------------------------------


Timings for individual modules:

Sum of individual times         ...       16.481 sec (=   0.275 min)
GTO integral calculation        ...        0.687 sec (=   0.011 min)   4.2 %
SCF iterations                  ...       14.512 sec (=   0.242 min)  88.1 %
CHELPG charge generation        ...        1.282 sec (=   0.021 min)   7.8 %



                             ****ORCA TERMINATED NORMALLY****
TOTAL RUN TIME: 0 days 0 hours 1 minutes 11 seconds 457 msec
