LAMMPS data file via vdw_self_gen.py, on 2021-08-05 13:21:08.466267

9500 atoms
8 atom types
9000 bonds
7 bond types
16500 angles
12 angle types
21000 dihedrals
10 dihedral types

-49.9712490294594929  49.9712490294594929 xlo xhi
-49.9712490294594929  49.9712490294594929 ylo yhi
-49.9712490294594929  49.9712490294594929 zlo zhi

Masses

1  1.007940
2  1.007940
3  1.007940
4  1.007940
5  12.011000
6  12.011000
7  12.011000
8  14.006740

Atoms

1         0    5   -0.1079060000000000  -18.8359722572648209 -38.4040751790212411  15.4471747822957806 0 0 0
2         0    7   -0.1020600000000000  -18.0279157842903182 -38.6199089068284636  16.7200970145726941 0 0 0
3         0    6    0.6030110000000000  -16.5635627006438710 -39.0279591097586760  16.4688471331722184 0 0 0
4         0    8   -1.0074770000000000  -15.8338672970715955 -37.9847325826479789  15.7469350736122990 0 0 0
5         0    7   -0.1020600000000000  -15.8672856559958966 -39.3273241237289781  17.8095905143256914 0 0 0
6         0    5   -0.1079060000000000  -14.4238027292544260 -39.7912904606743467  17.6579207906252371 0 0 0
7         0    1    0.0285690000000000  -19.8822573759797301 -38.2021688372536445  15.6985657415798361 0 0 0
8         0    1    0.0285690000000000  -18.8063140013280901 -39.2915421774173410  14.8077484996700104 0 0 0
9         0    1    0.0285690000000000  -18.4658548525708675 -37.5489142405604426  14.8733300779780890 0 0 0
10        0    2    0.0140440000000000  -18.5210823719493938 -39.4045402081303706  17.3068944156695039 0 0 0
11        0    2    0.0140440000000000  -18.0671028613591567 -37.7057183418518704  17.3260393658723757 0 0 0
12        0    3   -0.1057620000000000  -16.5484730818211858 -39.9396522544057149  15.8580415013159097 0 0 0
13        0    4    0.3512850000000000  -15.9020761961648471 -37.1024070736122837  16.2531956384298581 0 0 0
14        0    4    0.3512850000000000  -16.2606449476799106 -37.8252526672187557  14.8360730434365244 0 0 0
15        0    2    0.0140440000000000  -16.4255895193637294 -40.1127337853742816  18.3347516787721538 0 0 0
16        0    2    0.0140440000000000  -15.8900547544742619 -38.4405285042436518  18.4559670026945994 0 0 0
17        0    1    0.0285690000000000  -14.3604278394839451 -40.6738809242370181  17.0134131193172848 0 0 0
18        0    1    0.0285690000000000  -14.0106668337952485 -40.0557164376093411  18.6366033780891804 0 0 0
19        0    1    0.0285690000000000  -13.7916261260855126 -39.0056676207714759  17.2333884151474983 0 0 0
20        1    5   -0.1079060000000000   14.6702198373014294  5.0846023631368134   15.1541277317598286 0 0 0
21        1    7   -0.1020600000000000   15.8668795476630109  4.6262839303234253   15.9774261118996233 0 0 0
22        1    6    0.6030110000000000   16.7183913181972414  5.7813108773496111   16.5384981936190982 0 0 0
23        1    8   -1.0074770000000000   15.9450272881628248  6.6194965139013515   17.4557151288788432 0 0 0
24        1    7   -0.1020600000000000   17.9569851298141465  5.2155112431668282   17.2580606248110975 0 0 0
25        1    5   -0.1079060000000000   18.8901979038112700  6.2895622545552490   17.8034410150747213 0 0 0
26        1    1    0.0285690000000000   14.1629900636959398  4.2179967382867707   14.7177921010277117 0 0 0
27        1    1    0.0285690000000000   14.9839252413436821  5.7407091470430283   14.3365361076057312 0 0 0
28        1    1    0.0285690000000000   13.9379043473914486  5.6184448533972242   15.7675697318140031 0 0 0
29        1    2    0.0140440000000000   16.4975968250865108  3.9958977478827911   15.3386775470891816 0 0 0
30        1    2    0.0140440000000000   15.5122477368194058  3.9860238539230664   16.7951971449557007 0 0 0
31        1    3   -0.1057620000000000   17.0573385900198424  6.4102149126883834   15.7053775134300686 0 0 0
32        1    4    0.3512850000000000   15.5475877286716404  6.0438813783942100   18.1974425246426463 0 0 0
33        1    4    0.3512850000000000   15.1566639163053392  7.0391885889840138   16.9662415335477945 0 0 0
34        1    2    0.0140440000000000   18.5254722450146829  4.5932239845971150   16.5552471667919967 0 0 0
35        1    2    0.0140440000000000   17.6506222148626328  4.5583344127713463   18.0820678124215952 0 0 0
36        1    1    0.0285690000000000   19.2137123777385419  6.9694291896797198   17.0087764461627771 0 0 0
37        1    1    0.0285690000000000   19.7820864881238450  5.8257931876607572   18.2368864881906880 0 0 0
38        1    1    0.0285690000000000   18.4087283865533173  6.8789538844505431   18.5894962628536398 0 0 0
39        2    5   -0.1079060000000000  -4.5792909377983104   39.6769780053185173 -3.3565463862404572  0 0 0
40        2    7   -0.1020600000000000  -4.4457688520076113   39.3083565552087109 -4.8283346013465023  0 0 0
41        2    6    0.6030110000000000  -5.7227451231101174   38.6987903640833011 -5.4380247573093454  0 0 0
42        2    8   -1.0074770000000000  -6.8383666041536415   39.6452803453494269 -5.3995615671516779  0 0 0
43        2    7   -0.1020600000000000  -5.4513703423658910   38.2618653043860490 -6.8897362194066112  0 0 0
44        2    5   -0.1079060000000000  -6.6469103514688186   37.5971199341091022 -7.5610849410331085  0 0 0
45        2    1    0.0285690000000000  -3.6152033480513799   40.0217524693540341 -2.9688070109572937  0 0 0
46        2    1    0.0285690000000000  -4.8943747103357795   38.8138448314119344 -2.7623523129903842  0 0 0
47        2    1    0.0285690000000000  -5.3011930252069828   40.4855514251360162 -3.2060429990372867  0 0 0
48        2    2    0.0140440000000000  -3.6250352710324485   38.5870830582771021 -4.9250387056219749  0 0 0
49        2    2    0.0140440000000000  -4.1456574781897855   40.2002891503095228 -5.3929898575001287  0 0 0
50        2    3   -0.1057620000000000  -6.0067698658890007   37.8129826590210456 -4.8556414972118889  0 0 0
51        2    4    0.3512850000000000  -6.5711707853657924   40.5128616376689266 -5.8636301105151833  0 0 0
52        2    4    0.3512850000000000  -7.0552482586439345   39.8919610067971604 -4.4355316694237796  0 0 0
53        2    2    0.0140440000000000  -4.6152263321873770   37.5511275265787603 -6.8987247977228661  0 0 0
54        2    2    0.0140440000000000  -5.1375847034867181   39.1231261825972183 -7.4934710451340329  0 0 0
55        2    1    0.0285690000000000  -6.9924044357405055   36.7340440814787144 -6.9830656059416372  0 0 0
56        2    1    0.0285690000000000  -6.3683396959982534   37.2466549675120859 -8.5600817726090916  0 0 0
57        2    1    0.0285690000000000  -7.4821989411599006   38.2943439307482336 -7.6761932050390049  0 0 0
58        3    5   -0.1079060000000000   40.2248566529505069 -36.8864679548292003  6.3645215062786740  0 0 0
59        3    7   -0.1020600000000000   39.6252032515883386 -38.2728179293359503  6.5602764996247176  0 0 0
60        3    6    0.6030110000000000   38.6943757210725536 -38.7181178008849542  5.4160608042978549  0 0 0
61        3    8   -1.0074770000000000   39.4145788840158815 -38.8091290303312206  4.1452506883477538  0 0 0
62        3    7   -0.1020600000000000   38.0572671682164412 -40.0774759831674672  5.7599386499628071  0 0 0
63        3    5   -0.1079060000000000   37.0766182650946376 -40.5764821581815269  4.7057887589113294  0 0 0
64        3    1    0.0285690000000000   40.8028450566819316 -36.6010592188980297  7.2494776597157626  0 0 0
65        3    1    0.0285690000000000   39.4415952553045202 -36.1370983957229726  6.2152228018549565  0 0 0
66        3    1    0.0285690000000000   40.9032803560818436 -36.8567874636965556  5.5063576430942112  0 0 0
67        3    2    0.0140440000000000   39.0588047360471222 -38.2686825444226031  7.4996200854783268  0 0 0
68        3    2    0.0140440000000000   40.4389639235250087 -38.9977383526530019  6.6896213791794210  0 0 0
69        3    3   -0.1057620000000000   37.8926649533718916 -37.9774306660106404  5.3014396034469558  0 0 0
70        3    4    0.3512850000000000   40.2171327064655202 -39.4296229497473334  4.2469619234159737  0 0 0
71        3    4    0.3512850000000000   39.7890178546975477 -37.8973719622807081  3.8888581170926737  0 0 0
72        3    2    0.0140440000000000   37.5197793026776623 -39.9895139887461255  6.7126900713923359  0 0 0
73        3    2    0.0140440000000000   38.8367502432423919 -40.8358473603581871  5.9082843856815659  0 0 0
74        3    1    0.0285690000000000   36.2849758257371349 -39.8419421244269572  4.5265525225640477  0 0 0
75        3    1    0.0285690000000000   36.6066581368889459 -41.5063312747086783  5.0418543340459472  0 0 0
76        3    1    0.0285690000000000   37.5786451416859748 -40.7840962769437496  3.7560816278069349  0 0 0
77        4    5   -0.1079060000000000   26.4560068997278215 -37.1633109692990260 -37.5177333645368236 0 0 0
78        4    7   -0.1020600000000000   27.5565941763662892 -38.2071784464254449 -37.6552790213175328 0 0 0
79        4    6    0.6030110000000000   27.5518156923256115 -38.9455726648976324 -39.0075780151857998 0 0 0
80        4    8   -1.0074770000000000   27.7827618525831852 -38.0242036893176163 -40.1209858795827188 0 0 0
81        4    7   -0.1020600000000000   28.6264383080378977 -40.0488353358052791 -39.0041631387003491 0 0 0
82        4    5   -0.1079060000000000   28.6618612499921070 -40.8708721782999689 -40.2867043939684493 0 0 0
83        4    1    0.0285690000000000   26.4651675449689954 -36.7416600766583912 -36.5073855322463174 0 0 0
84        4    1    0.0285690000000000   25.4705455558193279 -37.6061896936905384 -37.6911335705442525 0 0 0
85        4    1    0.0285690000000000   26.5940196882006639 -36.3352272124633018 -38.2197409360649232 0 0 0
86        4    2    0.0140440000000000   27.4329138134045571 -38.9399230773233427 -36.8484461849703990 0 0 0
87        4    2    0.0140440000000000   28.5282359772831278 -37.7238346448476634 -37.4917641003242537 0 0 0
88        4    3   -0.1057620000000000   26.5708936589363844 -39.4161011833423558 -39.1521134234488244 0 0 0
89        4    4    0.3512850000000000   28.6507322100954767 -37.5110710540004106 -39.9700790396038741 0 0 0
90        4    4    0.3512850000000000   27.0413648666543445 -37.3269247543958969 -40.1580701170708494 0 0 0
91        4    2    0.0140440000000000   28.4357412947269310 -40.7309585474512943 -38.1658861186479044 0 0 0
92        4    2    0.0140440000000000   29.6189013765985472 -39.6121222557844064 -38.8337923355037233 0 0 0
93        4    1    0.0285690000000000   27.6848227180608255 -41.3194290279360530 -40.4930170236499833 0 0 0
94        4    1    0.0285690000000000   29.3933896645409938 -41.6798742037586436 -40.1928754330270550 0 0 0
95        4    1    0.0285690000000000   28.9520887626382724 -40.2607244196486036 -41.1472658069518289 0 0 0
96        5    5   -0.1079060000000000   39.2321318642497729 -15.8744270174757904  7.9354431833962460  0 0 0
97        5    7   -0.1020600000000000   38.5611496837227961 -15.7577215693372885  6.5730800809929075  0 0 0
98        5    6    0.6030110000000000   39.1185002304170268 -16.7311143369983704  5.5167523323444350  0 0 0
99        5    8   -1.0074770000000000   38.9061403276669679 -18.1250442560788123  5.9089214833448214  0 0 0
100       5    7   -0.1020600000000000   38.4543651200615741 -16.4594095835702028  4.1539922541363552  0 0 0
101       5    5   -0.1079060000000000   38.9822955282821013 -17.3429183758347740  3.0303316626910060  0 0 0
102       5    1    0.0285690000000000   38.8492111731096230 -15.1000611288686386  8.6080540291000673  0 0 0
103       5    1    0.0285690000000000   40.3155344531521962 -15.7454054184819778  7.8521634520529293  0 0 0
104       5    1    0.0285690000000000   39.0317798295801808 -16.8432409049756799  8.4032503896159696  0 0 0
105       5    2    0.0140440000000000   38.6940934708758775 -14.7292508715544734  6.2156381621312136  0 0 0
106       5    2    0.0140440000000000   37.4809035294504653 -15.9089670592473951  6.6940726310185559  0 0 0
107       5    3   -0.1057620000000000   40.1988171594232853 -16.5659154618077764  5.4161527745011826  0 0 0
108       5    4    0.3512850000000000   37.9157757226364041 -18.2856205918642267  6.0901498111205337  0 0 0
109       5    4    0.3512850000000000   39.3918873860244787 -18.3209904222013478  6.7823615441268528  0 0 0
110       5    2    0.0140440000000000   38.6263247009588753 -15.4120368329402506  3.8750549621234773  0 0 0
111       5    2    0.0140440000000000   37.3670838328594925 -16.5898478880553952  4.2283745001579183  0 0 0
112       5    1    0.0285690000000000   40.0677323007888404 -17.2431992609535598  2.9290619613117199  0 0 0
113       5    1    0.0285690000000000   38.5248691157931802 -17.0523521818072865  2.0791459098299327  0 0 0
114       5    1    0.0285690000000000   38.7454180062927378 -18.3970540245235590  3.2028579381961326  0 0 0
115       6    5   -0.1079060000000000  -37.9397027151363773  37.8429188392552049  7.6780422983982088  0 0 0
116       6    7   -0.1020600000000000  -37.9973695436681496  38.9550593448578937  6.6389616933993114  0 0 0
117       6    6    0.6030110000000000  -38.8957099979504619  38.6337123238256552  5.4291344557849639  0 0 0
118       6    8   -1.0074770000000000  -40.2889501890356954  38.4408299054335885  5.8336244225579401  0 0 0
119       6    7   -0.1020600000000000  -38.7997777114154516  39.7677002700872677  4.3914050677778889  0 0 0
120       6    5   -0.1079060000000000  -39.6175991210347433  39.5130763159190437  3.1311486610764341  0 0 0
121       6    1    0.0285690000000000  -37.2207294249981331  38.1012536149450796  8.4622722944051567  0 0 0
122       6    1    0.0285690000000000  -37.6226742865235764  36.8984450492624916  7.2254878908756215  0 0 0
123       6    1    0.0285690000000000  -38.9099116180687403  37.6895068806289828  8.1604781223388105  0 0 0
124       6    2    0.0140440000000000  -36.9762761419472810  39.1428905519016226  6.2850147274247465  0 0 0
125       6    2    0.0140440000000000  -38.3342275860267918  39.8794992886303206  7.1251546580299676  0 0 0
126       6    3   -0.1057620000000000  -38.5443327554033672  37.7046373845673202  4.9623910603714680  0 0 0
127       6    4    0.3512850000000000  -40.6166104909182408  39.2599453900366058  6.3446421000934619  0 0 0
128       6    4    0.3512850000000000  -40.3611463484547031  37.6548038277179415  6.4772029835869054  0 0 0
129       6    2    0.0140440000000000  -37.7501026088616598  39.8957534110389531  4.0978912499241300  0 0 0
130       6    2    0.0140440000000000  -39.1192351416567803  40.7185804618529588  4.8369398907392922  0 0 0
131       6    1    0.0285690000000000  -39.3297122293873684  38.5676916933565437  2.6602543051536252  0 0 0
132       6    1    0.0285690000000000  -39.4503227139811870  40.3171797321978573  2.4073681197712737  0 0 0
133       6    1    0.0285690000000000  -40.6896228108771609  39.4805291498305095  3.3474450604830475  0 0 0
134       7    5   -0.1079060000000000   27.9126777182450709  25.8664785850816479 -40.5429139490973114 0 0 0
135       7    7   -0.1020600000000000   28.5416807363176019  26.9846282433866982 -39.7219590076492750 0 0 0
136       7    6    0.6030110000000000   27.5215328694727539  27.8400760336317958 -38.9464147906398921 0 0 0
137       7    8   -1.0074770000000000   26.7862072012717185  27.0387858891774471 -37.9670454748631414 0 0 0
138       7    7   -0.1020600000000000   28.2440178074266619  29.0029641880248334 -38.2409216273830879 0 0 0
139       7    5   -0.1079060000000000   27.3056625564434086  29.9377613671717882 -37.4875591093938638 0 0 0
140       7    1    0.0285690000000000   28.6823111477841231  25.3569404354796895 -41.1317359876931619 0 0 0
141       7    1    0.0285690000000000   27.1626304112702535  26.2612992274474664 -41.2349319791815603 0 0 0
142       7    1    0.0285690000000000   27.4368324106018093  25.1151146901104489 -39.9052554126315897 0 0 0
143       7    2    0.0140440000000000   29.1043951691037641  27.6326721800911024 -40.4050272877902898 0 0 0
144       7    2    0.0140440000000000   29.2740923379052163  26.5496193249982113 -39.0300149087638601 0 0 0
145       7    3   -0.1057620000000000   26.7973903316773701  28.2600627216944851 -39.6561502155028478 0 0 0
146       7    4    0.3512850000000000   27.4417670832342289  26.5688825357457752 -37.3434409552395579 0 0 0
147       7    4    0.3512850000000000   26.2629727600204816  26.3031151426358107 -38.4384867932383898 0 0 0
148       7    2    0.0140440000000000   28.7865423315690379  29.5937087247725792 -38.9899568883066152 0 0 0
149       7    2    0.0140440000000000   28.9963971755441534  28.6149786016759542 -37.5422658190506624 0 0 0
150       7    1    0.0285690000000000   26.5358796268679029  30.3417113690037112 -38.1528643617060084 0 0 0
151       7    1    0.0285690000000000   27.8695174943834196  30.7787652425118097 -37.0713835899027089 0 0 0
152       7    1    0.0285690000000000   26.8117881418223760  29.4267308083201087 -36.6556852773120454 0 0 0
153       8    5   -0.1079060000000000  -25.4035238509401111 -16.2945988135715467 -15.8012716218104696 0 0 0
154       8    7   -0.1020600000000000  -26.8948701062699769 -16.5062998625861752 -15.5755738514189748 0 0 0
155       8    6    0.6030110000000000  -27.7292791049232079 -16.5038227370531771 -16.8708409711342924 0 0 0
156       8    8   -1.0074770000000000  -27.3371992302205697 -17.5966736624692572 -17.7618427765591598 0 0 0
157       8    7   -0.1020600000000000  -29.2266739990425144 -16.6141560715725696 -16.5278409201732721 0 0 0
158       8    5   -0.1079060000000000  -30.1378582747340893 -16.5671472990351027 -17.7482690490431985 0 0 0
159       8    1    0.0285690000000000  -24.8866408903845588 -16.2218770159724741 -14.8388685460977570 0 0 0
160       8    1    0.0285690000000000  -25.2174994268741770 -15.3702190461022354 -16.3564834871774991 0 0 0
161       8    1    0.0285690000000000  -24.9555710161419775 -17.1275855017570358 -16.3517771201500359 0 0 0
162       8    2    0.0140440000000000  -27.2559492142841897 -15.7066591136437594 -14.9172522715763645 0 0 0
163       8    2    0.0140440000000000  -27.0425862546069382 -17.4484059581056528 -15.0323775761136869 0 0 0
164       8    3   -0.1057620000000000  -27.5624976698211839 -15.5564618857892576 -17.3992224402433209 0 0 0
165       8    4    0.3512850000000000  -27.4036228330404512 -18.4858539839893368 -17.2674777513906399 0 0 0
166       8    4    0.3512850000000000  -26.3613067127759564 -17.4934204028828617 -18.0342674510664587 0 0 0
167       8    2    0.0140440000000000  -29.5029491209781369 -15.7861660571553575 -15.8626564479215233 0 0 0
168       8    2    0.0140440000000000  -29.4222077213563118 -17.5408828567942976 -15.9731594834091517 0 0 0
169       8    1    0.0285690000000000  -29.9673148761268955 -15.6563269058633399 -18.3311014451691570 0 0 0
170       8    1    0.0285690000000000  -31.1862847899436701 -16.5769200229494622 -17.4334225650660315 0 0 0
171       8    1    0.0285690000000000  -29.9804602184964502 -17.4310999892839114 -18.4008714110558387 0 0 0
172       9    5   -0.1079060000000000   7.4148863220515029  -26.0601183986240166  27.5157154564757072 0 0 0
173       9    7   -0.1020600000000000   6.8498381746763375  -27.4644372812251625  27.3469566400608031 0 0 0
174       9    6    0.6030110000000000   5.4640092448760864  -27.6617706628222777  27.9907727150668144 0 0 0
175       9    8   -1.0074770000000000   4.4606881031941281  -26.7896770391442232  27.3786180052147365 0 0 0
176       9    7   -0.1020600000000000   5.0326267351317195  -29.1345495268086943  27.8609825125031207 0 0 0
177       9    5   -0.1079060000000000   3.6915169606774918  -29.4382580355720869  28.5175623943667489 0 0 0
178       9    1    0.0285690000000000   8.4316890460992084  -26.0155529357550783  27.1122278175219869 0 0 0
179       9    1    0.0285690000000000   7.4568644095136314  -25.7778177800517696  28.5720712001656665 0 0 0
180       9    1    0.0285690000000000   6.8168211251949478  -25.3164923271639601  26.9800633727928165 0 0 0
181       9    2    0.0140440000000000   7.5565723428548202  -28.1717212905773948  27.7980296915100134 0 0 0
182       9    2    0.0140440000000000   6.8074727623206606  -27.7050081634088095  26.2770141314738623 0 0 0
183       9    3   -0.1057620000000000   5.5286663519943948  -27.4111007617755469  29.0572996325463144 0 0 0
184       9    4    0.3512850000000000   4.4381520285069564  -26.9435611403507913  26.3710157394205709 0 0 0
185       9    4    0.3512850000000000   4.7167792848775791  -25.8131328531795532  27.5128618282479849 0 0 0
186       9    2    0.0140440000000000   5.7940739712258642  -29.7724715767149526  28.3274794085142112 0 0 0
187       9    2    0.0140440000000000   4.9850611561329234  -29.4248377617529151  26.8035338264443226 0 0 0
188       9    1    0.0285690000000000   3.6990807401311767  -29.1563228483051269  29.5753089523006949 0 0 0
189       9    1    0.0285690000000000   3.4775352402527551  -30.5099713459452033  28.4538099348600149 0 0 0
190       9    1    0.0285690000000000   2.8725250624800527  -28.9074935817837932  28.0229720514749907 0 0 0
191       10   5   -0.1079060000000000  -29.3665752772120285  7.4755419954101239   16.2680004209398597 0 0 0
192       10   7   -0.1020600000000000  -29.0418832241421150  5.9882618494418551   16.3174302609340138 0 0 0
193       10   6    0.6030110000000000  -27.5516158746726738  5.6819154058897725   16.5607746839815313 0 0 0
194       10   8   -1.0074770000000000  -27.1045417810729390  6.1953800794549378   17.8563103934209053 0 0 0
195       10   7   -0.1020600000000000  -27.3113053134238655  4.1625824988371791   16.4840133636477120 0 0 0
196       10   5   -0.1079060000000000  -25.8508917142069876  3.7655211407197613   16.6613430673421661 0 0 0
197       10   1    0.0285690000000000  -30.4202551783145552  7.6194622260147238   16.0077663568066306 0 0 0
198       10   1    0.0285690000000000  -28.7587506996316975  7.9855596264603479   15.5144922556176610 0 0 0
199       10   1    0.0285690000000000  -29.1990410086201031  7.9584262420443332   17.2356470205824621 0 0 0
200       10   2    0.0140440000000000  -29.3464512564765698  5.5418996734182651   15.3628676000282951 0 0 0
201       10   2    0.0140440000000000  -29.6568548727266439  5.5151499012718359   17.0935881734337798 0 0 0
202       10   3   -0.1057620000000000  -26.9563136586547571  6.1681095535052446   15.7773679384600030 0 0 0
203       10   4    0.3512850000000000  -27.6962660335052142  5.8226628471087789   18.5981963624860143 0 0 0
204       10   4    0.3512850000000000  -27.2109610637845698  7.2077790381143032   17.8873897961272235 0 0 0
205       10   2    0.0140440000000000  -27.6490291967113784  3.7962391900842145   15.5062092176710600 0 0 0
206       10   2    0.0140440000000000  -27.9154692012290226  3.6436331067253223   17.2392649723178906 0 0 0
207       10   1    0.0285690000000000  -25.2147739292617707  4.2690700775205794   15.9263838349196103 0 0 0
208       10   1    0.0285690000000000  -25.7372706014864043  2.6853211610837775   16.5246674691596489 0 0 0
209       10   1    0.0285690000000000  -25.4860454258280562  4.0123434490869094   17.6628639987002884 0 0 0
210       11   5   -0.1079060000000000  -18.2601700329211560  15.8344304060988268  37.0836493856265861 0 0 0
211       11   7   -0.1020600000000000  -17.0991178796974843  16.7055857402675336  37.5450784183543504 0 0 0
212       11   6    0.6030110000000000  -16.8356567595589652  16.6433046744872009  39.0618746247118906 0 0 0
213       11   8   -1.0074770000000000  -16.4676098685873207  15.2917416902653116  39.4858474732851406 0 0 0
214       11   7   -0.1020600000000000  -15.7209742708071687  17.6366557230493832  39.4396981181456709 0 0 0
215       11   5   -0.1079060000000000  -15.4254146472607303  17.6836138331633173  40.9338034931188091 0 0 0
216       11   1    0.0285690000000000  -18.4447056305688903  15.9926177786534716  36.0161291266782797 0 0 0
217       11   1    0.0285690000000000  -19.1773585294642821  16.0823940847459710  37.6264408116649420 0 0 0
218       11   1    0.0285690000000000  -18.0485258731408145  14.7701615812932570  37.2255066617101846 0 0 0
219       11   2    0.0140440000000000  -17.3194381339521186  17.7426362774853850  37.2636962566572265 0 0 0
220       11   2    0.0140440000000000  -16.1959685905056858  16.4172758872048874  36.9922267752715612 0 0 0
221       11   3   -0.1057620000000000  -17.7518306948243172  16.9299852699775215  39.5937911247471135 0 0 0
222       11   4    0.3512850000000000  -15.6659023065009819  14.9669661424731189  38.9461842952288180 0 0 0
223       11   4    0.3512850000000000  -17.2274079741500685  14.6433059232225169  39.2871503688701935 0 0 0
224       11   2    0.0140440000000000  -16.0152313717670296  18.6436009847912096  39.1174563029037827 0 0 0
225       11   2    0.0140440000000000  -14.7960585844302610  17.3927201165696559  38.9014102209333075 0 0 0
226       11   1    0.0285690000000000  -16.3284308561613436  17.9198961139912818  41.5057343032956112 0 0 0
227       11   1    0.0285690000000000  -14.6791139585426578  18.4565080603409015  41.1437838922385453 0 0 0
228       11   1    0.0285690000000000  -15.0256612237355434  16.7311768984959706  41.2945517819038983 0 0 0
229       12   5   -0.1079060000000000  -18.4731186073661782 -14.9502530928672819 -6.0150102468918281  0 0 0
230       12   7   -0.1020600000000000  -17.0104465319349920 -15.3715295080920260 -5.9603563108102966  0 0 0
231       12   6    0.6030110000000000  -16.7847711228461449 -16.7672088139118820 -5.3478929979181764  0 0 0
232       12   8   -1.0074770000000000  -17.4348553616648658 -17.8110878790944049 -6.1413921915618319  0 0 0
233       12   7   -0.1020600000000000  -15.2751090964959868 -17.0514481291652693 -5.2376998653707458  0 0 0
234       12   5   -0.1079060000000000  -14.9518260482770877 -18.3934882153583033 -4.5924650984174313  0 0 0
235       12   1    0.0285690000000000  -18.5520430834407790 -13.9207916099954545 -6.3792301217746994  0 0 0
236       12   1    0.0285690000000000  -18.9321371773745106 -14.9947161140546825 -5.0227057329272835  0 0 0
237       12   1    0.0285690000000000  -19.0512682357873331 -15.5836621198322405 -6.6948049808489243  0 0 0
238       12   2    0.0140440000000000  -16.4647095887529069 -14.6286903004933571 -5.3657540466029845  0 0 0
239       12   2    0.0140440000000000  -16.5900141602122595 -15.3305689547473953 -6.9732753614146850  0 0 0
240       12   3   -0.1057620000000000  -17.2167924479136509 -16.7867578676382294 -4.3391953149202784  0 0 0
241       12   4    0.3512850000000000  -17.1119320185364785 -17.7620268339569698 -7.1071892953123026  0 0 0
242       12   4    0.3512850000000000  -18.4409342011377468 -17.6551150478182315 -6.1682341208627083  0 0 0
243       12   2    0.0140440000000000  -14.8055312403814874 -16.2615587780462185 -4.6377521683707190  0 0 0
244       12   2    0.0140440000000000  -14.8075076638634542 -17.0117331394932059 -6.2299191390675217  0 0 0
245       12   1    0.0285690000000000  -15.4072275092780586 -18.4722050761230783 -3.6001014520913905  0 0 0
246       12   1    0.0285690000000000  -13.8685875451849157 -18.5027328302793741 -4.4780888249628115  0 0 0
247       12   1    0.0285690000000000  -15.3057655461279900 -19.2290028756092433 -5.2037917920656138  0 0 0
248       13   5   -0.1079060000000000  -7.5902836587718348  -40.0641335780954435 -26.8464319947133667 0 0 0
249       13   7   -0.1020600000000000  -6.3162491118926027  -40.0300673800386235 -27.6804259626221132 0 0 0
250       13   6    0.6030110000000000  -5.6752612576080645  -38.6328770644820167 -27.7850931369154353 0 0 0
251       13   8   -1.0074770000000000  -5.2644746701206584  -38.1330748668061688 -26.4723151155657384 0 0 0
252       13   7   -0.1020600000000000  -4.4626233154307755  -38.6841452600956046 -28.7331937338515147 0 0 0
253       13   5   -0.1079060000000000  -3.7921408828534302  -37.3316527703550776 -28.9408684783455108 0 0 0
254       13   1    0.0285690000000000  -8.0360356073566024  -41.0633454456792677 -26.8858905668179915 0 0 0
255       13   1    0.0285690000000000  -8.3270493444003595  -39.3492479446905392 -27.2251906407290178 0 0 0
256       13   1    0.0285690000000000  -7.3915476452964084  -39.8351858711742750 -25.7949226923087487 0 0 0
257       13   2    0.0140440000000000  -6.5602230501467176  -40.3869035913219534 -28.6885605706332356 0 0 0
258       13   2    0.0140440000000000  -5.5972155934015309  -40.7455812291828181 -27.2615263563090906 0 0 0
259       13   3   -0.1057620000000000  -6.4123068428197048  -37.9339690389854596 -28.2007696742813749 0 0 0
260       13   4    0.3512850000000000  -4.6414659887083447  -38.8056923690172937 -26.0263370937932095 0 0 0
261       13   4    0.3512850000000000  -6.0748197198839105  -38.0456385332609486 -25.8616282625875868 0 0 0
262       13   2    0.0140440000000000  -4.7896698379098259  -39.0576251648243513 -29.7119271612964795 0 0 0
263       13   2    0.0140440000000000  -3.7170810036223143  -39.3971884704211490 -28.3584091172889572 0 0 0
264       13   1    0.0285690000000000  -4.5082078277217565  -36.5907595114860769 -29.3105950676373936 0 0 0
265       13   1    0.0285690000000000  -2.9870207687101158  -37.4219414852756103 -29.6771099619362175 0 0 0
266       13   1    0.0285690000000000  -3.3511829355372909  -36.9549838601531562 -28.0130997233283772 0 0 0
267       14   5   -0.1079060000000000  -26.3506089199119984  26.3750215173619367  7.1368656841819327  0 0 0
268       14   7   -0.1020600000000000  -27.6831772602039656  26.9645615236387606  6.6934982626784718  0 0 0
269       14   6    0.6030110000000000  -27.5707322810045348  27.9394268606921479  5.5056619415194339  0 0 0
270       14   8   -1.0074770000000000  -27.0534241025450051  27.2700618733571183  4.3113936497068934  0 0 0
271       14   7   -0.1020600000000000  -28.9481459074077385  28.5605552419527555  5.2074251490351058  0 0 0