LAMMPS data file via vdw_self_gen.py, on 2021-08-05 13:22:36.045670

6500 atoms
8 atom types
6000 bonds
7 bond types
10500 angles
12 angle types
12000 dihedrals
8 dihedral types

-40.6091383256140261  40.6091383256140261 xlo xhi
-40.6091383256140261  40.6091383256140261 ylo yhi
-40.6091383256140261  40.6091383256140261 zlo zhi

Masses

1  1.007940
2  1.007940
3  1.007940
4  1.007940
5  12.011000
6  12.011000
7  12.011000
8  14.006740

Atoms

1         0    5   -0.1079060000000000   13.7791992256393030  23.9580982349109703 -23.5890499667538691 0 0 0
2         0    7   -0.0515450000000000   13.0762723610167999  23.0807975300123402 -22.5646350931424280 0 0 0
3         0    6    0.4196630000000000   13.7814001448744410  21.7360174362554694 -22.4071348427703185 0 0 0
4         0    8   -0.9730690000000000   13.0845422769075750  20.9108695540780296 -21.4275839386868405 0 0 0
5         0    1    0.0285690000000000   13.2594340594004922  24.9162428188454967 -23.6878304731388809 0 0 0
6         0    1    0.0285690000000000   13.7950655798740058  23.4772843892585499 -24.5723821098429838 0 0 0
7         0    1    0.0285690000000000   14.8120924299890540  24.1612513144339118 -23.2886763599099140 0 0 0
8         0    2    0.0140440000000000   12.0369896844063398  22.9262850995440530 -22.8792988295789286 0 0 0
9         0    2    0.0140440000000000   13.0484838014066327  23.6074756411123126 -21.6029640943892396 0 0 0
10        0    3   -0.0517540000000000   14.8173190690163334  21.8865567437905817 -22.0838590413382363 0 0 0
11        0    3   -0.0517540000000000   13.8048529248536447  21.2080146127243694 -23.3664449832120980 0 0 0
12        0    4    0.3512850000000000   13.0817042026903252  21.3802601840679607 -20.5228886302473690 0 0 0
13        0    4    0.3512850000000000   13.5955769842525100  20.0390676815117210 -21.2954728775346602 0 0 0
14        1    5   -0.1079060000000000  -23.3887883513614874  21.2408361576012652 -30.7837546139166740 0 0 0
15        1    7   -0.0515450000000000  -22.6453256976441928  21.9502036214720029 -31.9050260444049556 0 0 0
16        1    6    0.4196630000000000  -22.4090543707638226  23.4211206205413376 -31.5718233089073976 0 0 0
17        1    8   -0.9730690000000000  -21.7035160540342247  24.0804776977847084 -32.6642810049375143 0 0 0
18        1    1    0.0285690000000000  -23.5486439634953868  20.1890790715105588 -31.0410631355930668 0 0 0
19        1    1    0.0285690000000000  -24.3669623384823133  21.7003752339592069 -30.6094695393398943 0 0 0
20        1    1    0.0285690000000000  -22.8192146643693690  21.2793354261568233 -29.8496949421574840 0 0 0
21        1    2    0.0140440000000000  -23.2268138639985651  21.8626972448183281 -32.8308823974828954 0 0 0
22        1    2    0.0140440000000000  -21.6877916114463609  21.4430228999168015 -32.0749358323867781 0 0 0
23        1    3   -0.0517540000000000  -21.8204169866502191  23.5118492980067870 -30.6522735922475178 0 0 0
24        1    3   -0.0517540000000000  -23.3655229620794813  23.9286453881701533 -31.4069008902677531 0 0 0
25        1    4    0.3512850000000000  -20.7985994039079429  23.6340052903391040 -32.8077991745675277 0 0 0
26        1    4    0.3512850000000000  -21.5075709723124042  25.0465732902686966 -32.4056052605546299 0 0 0
27        2    5   -0.1079060000000000   4.2674077652110531  -32.7895322455661145 -32.8332657252945666 0 0 0
28        2    7   -0.0515450000000000   3.9828505310767275  -31.5291230249277561 -32.0310286567595739 0 0 0
29        2    6    0.4196630000000000   4.9219689331487997  -31.4084942397927094 -30.8335519997484901 0 0 0
30        2    8   -0.9730690000000000   4.6238933717346118  -30.1985077549627654 -30.0765291761054456 0 0 0
31        2    1    0.0285690000000000   3.5848178277292906  -32.8581456356114074 -33.6860949228219226 0 0 0
32        2    1    0.0285690000000000   4.1332466510792045  -33.6849010037475551 -32.2178866702987676 0 0 0
33        2    1    0.0285690000000000   5.2923489206026746  -32.7867087315081989 -33.2177803605854081 0 0 0
34        2    2    0.0140440000000000   2.9402260536743983  -31.5494355985089712 -31.6911500923045111 0 0 0
35        2    2    0.0140440000000000   4.0927722935254733  -30.6566065029866088 -32.6864714625633184 0 0 0
36        2    3   -0.0517540000000000   5.9640635512802493  -31.3786113331301522 -31.1703652462974716 0 0 0
37        2    3   -0.0517540000000000   4.8086736820078047  -32.2774912168296453 -30.1765730045975289 0 0 0
38        2    4    0.3512850000000000   4.7540182587938462  -29.3807329772085559 -30.6707691494637444 0 0 0
39        2    4    0.3512850000000000   5.2913564082450133  -30.1052194719836272 -29.3120432699233149 0 0 0
40        3    5   -0.1079060000000000   32.9863952930291262 -30.6891059899510381 -5.0624573954742491  0 0 0
41        3    7   -0.0515450000000000   32.0134052753605118 -31.8556229444500367 -4.9868455082897523  0 0 0
42        3    6    0.4196630000000000   30.9705263273426858 -31.6396471118753233 -3.8931348699009254  0 0 0
43        3    8   -0.9730690000000000   30.0560769979862492 -32.7738317312042184 -3.8347605380646770  0 0 0
44        3    1    0.0285690000000000   33.7253257534964064 -30.8624283959286316 -5.8510609577156121  0 0 0
45        3    1    0.0285690000000000   33.5224692837259681 -30.5634153352199966 -4.1163060678254197  0 0 0
46        3    1    0.0285690000000000   32.4620208464348750 -29.7549071734158836 -5.2875526196423301  0 0 0
47        3    2    0.0140440000000000   32.5751360282507179 -32.7778220759090075 -4.7944834452582930  0 0 0
48        3    2    0.0140440000000000   31.5212223691156410 -31.9733368030322396 -5.9599192880711440  0 0 0
49        3    3   -0.0517540000000000   30.4013208132521129 -30.7239140227585175 -4.0873907231601745  0 0 0
50        3    3   -0.0517540000000000   31.4618218743729798 -31.5269199190247242 -2.9207490279841331  0 0 0
51        3    4    0.3512850000000000   29.5716377938695203 -32.8707301237929670 -4.7262416530236324  0 0 0
52        3    4    0.3512850000000000   29.3361510805272729 -32.5918281102014973 -3.1367421536988047  0 0 0
53        4    5   -0.1079060000000000   21.4570578917013748 -5.4462914395661919  -3.5226953254432170  0 0 0
54        4    7   -0.0515450000000000   22.3435564112650411 -4.2690873865217327  -3.8988595574046228  0 0 0
55        4    6    0.4196630000000000   23.1119725091553541 -4.5419308021015503  -5.1894168758053860  0 0 0
56        4    8   -0.9730690000000000   23.9600268785567323 -3.4039191936318116  -5.5236821220206407  0 0 0
57        4    1    0.0285690000000000   20.9153851912345310 -5.2319428136690140  -2.5960887140136597  0 0 0
58        4    1    0.0285690000000000   22.0524115765640865 -6.3515721438480615  -3.3665011021975664  0 0 0
59        4    1    0.0285690000000000   20.7211388214187693 -5.6495564628832788  -4.3072144783580963  0 0 0
60        4    2    0.0140440000000000   23.0440552961263627 -4.0724415716426368  -3.0781113768409489  0 0 0
61        4    2    0.0140440000000000   21.7192982617209651 -3.3745283790073293  -4.0130483983771592  0 0 0
62        4    3   -0.0517540000000000   22.4147915914202684 -4.7296543958251220  -6.0134289901614633  0 0 0
63        4    3   -0.0517540000000000   23.7390056742812305 -5.4324687579362489  -5.0737253931889708  0 0 0
64        4    4    0.3512850000000000   23.3835655578257686 -2.5748321601574373  -5.6619436709985509  0 0 0
65        4    4    0.3512850000000000   24.4259555792752892 -3.5794187413187362  -6.4129282432988814  0 0 0
66        5    5   -0.1079060000000000   12.7959393662265413  3.4516739846063533   5.6939487522356291  0 0 0
67        5    7   -0.0515450000000000   13.8939949233069395  3.9834714832477527   4.7858441596343173  0 0 0
68        5    6    0.4196630000000000   13.3830318662965873  5.1179285256169207   3.9013279108352119  0 0 0
69        5    8   -0.9730690000000000   14.4503067758689685  5.6041710039082213   3.0350182612281014  0 0 0
70        5    1    0.0285690000000000   13.1811205903257509  2.6400709722858382   6.3191610643294638  0 0 0
71        5    1    0.0285690000000000   11.9575948504692047  3.0608655599325618   5.1084378239827180  0 0 0
72        5    1    0.0285690000000000   12.4173626676570805  4.2386779418718863   6.3540004953199354  0 0 0
73        5    2    0.0140440000000000   14.2725828837821158  3.1628875926684898   4.1643064899753934  0 0 0
74        5    2    0.0140440000000000   14.7296879880715572  4.3336555394684417   5.4038743974650778  0 0 0
75        5    3   -0.0517540000000000   13.0125931051361299  5.9432425180829629   4.5193321845823027  0 0 0
76        5    3   -0.0517540000000000   12.5516531682597954  4.7668662706799552   3.2807010392696760  0 0 0
77        5    4    0.3512850000000000   15.2182567119278058  5.9601484663909154   3.6027701094959932  0 0 0
78        5    4    0.3512850000000000   14.1088078469989888  6.3939843893488639   2.4889215597553309  0 0 0
79        6    5   -0.1079060000000000  -20.8656980066841165 -23.0036755638156407 -31.6055016964927766 0 0 0
80        6    7   -0.0515450000000000  -22.3327319876584163 -23.0672131882449492 -32.0016870143032151 0 0 0
81        6    6    0.4196630000000000  -23.1814584115558233 -22.1332239531955892 -31.1427501207014572 0 0 0
82        6    8   -0.9730690000000000  -24.5830665644885329 -22.2185967299296330 -31.5354407927644331 0 0 0
83        6    1    0.0285690000000000  -20.2744605196581063 -23.6793154518716911 -32.2315236096897451 0 0 0
84        6    1    0.0285690000000000  -20.7281973211313613 -23.3009113670021293 -30.5609346867817635 0 0 0
85        6    1    0.0285690000000000  -20.4692666609145917 -21.9909147975234873 -31.7300876802577676 0 0 0
86        6    2    0.0140440000000000  -22.6868001417796670 -24.1000544606048592 -31.8974253797144023 0 0 0
87        6    2    0.0140440000000000  -22.4283520911660652 -22.7975072600156032 -33.0605017547952116 0 0 0
88        6    3   -0.0517540000000000  -22.8361314470312102 -21.0992311935261796 -31.2518629284897997 0 0 0
89        6    3   -0.0517540000000000  -23.0897156560341905 -22.4056381452310802 -30.0858741890581314 0 0 0
90        6    4    0.3512850000000000  -24.6842586998228413 -21.9393399895832424 -32.5104203023017320 0 0 0
91        6    4    0.3512850000000000  -25.1280837326208513 -21.5525991400016750 -30.9894995814136358 0 0 0
92        7    5   -0.1079060000000000  -13.2988136041275471  2.9670281019736722  -21.7695898273758850 0 0 0
93        7    7   -0.0515450000000000  -13.4316158468713578  3.9361516616563672  -22.9342149290674726 0 0 0
94        7    6    0.4196630000000000  -13.8141449171931079  5.3336973616781886  -22.4536084916269161 0 0 0
95        7    8   -0.9730690000000000  -13.9437777744603366  6.2409883810804949  -23.5876359241560642 0 0 0
96        7    1    0.0285690000000000  -13.0247428661288218  1.9719861321686989  -22.1339127186406124 0 0 0
97        7    1    0.0285690000000000  -14.2426718291349452  2.8801793558310882  -21.2218994537345864 0 0 0
98        7    1    0.0285690000000000  -12.5243955780151133  3.2980074154292582  -21.0702377959234930 0 0 0
99        7    2    0.0140440000000000  -14.1896773318828231  3.5568761696244642  -23.6302671729300791 0 0 0
100       7    2    0.0140440000000000  -12.4804514758165404  3.9714815836253967  -23.4792023440135011 0 0 0
101       7    3   -0.0517540000000000  -13.0540733551476702  5.7192380067564432  -21.7651704218904669 0 0 0
102       7    3   -0.0517540000000000  -14.7663871669668758  5.2991240345937491  -21.9135600281534018 0 0 0
103       7    4    0.3512850000000000  -13.0542546286865040  6.3030876834429961  -24.0812972139881865 0 0 0
104       7    4    0.3512850000000000  -14.1479263698958171  7.1797983602483475  -23.2476249190450943 0 0 0
105       8    5   -0.1079060000000000   22.3387975416533600 -11.8351947240365121  31.9402369278244720 0 0 0
106       8    7   -0.0515450000000000   22.0063166569338904 -13.3193240160743382  31.9425266683001823 0 0 0
107       8    6    0.4196630000000000   22.9951070266248152 -14.1118236868053284  31.0912435792529713 0 0 0
108       8    8   -0.9730690000000000   22.6504432124832391 -15.5285399065997325  31.1022842808986582 0 0 0
109       8    1    0.0285690000000000   21.6196425283100524 -11.2847515068477122  32.5548773036818062 0 0 0
110       8    1    0.0285690000000000   22.3014081978510319 -11.4263474304103774  30.9254356041829332 0 0 0
111       8    1    0.0285690000000000   23.3395837993826873 -11.6568037731392291  32.3463986985243821 0 0 0
112       8    2    0.0140440000000000   20.9868613830914903 -13.4579024987133238  31.5623914438281652 0 0 0
113       8    2    0.0140440000000000   22.0191291495348551 -13.6862204211942018  32.9760623544491764 0 0 0
114       8    3   -0.0517540000000000   24.0135053685950908 -13.9828905255869298  31.4740469247326224 0 0 0
115       8    3   -0.0517540000000000   22.9787608980037632 -13.7486012702389413  30.0580856821807103 0 0 0
116       8    4    0.3512850000000000   22.6904851715485094 -15.8843780209855385  32.0565301072791371 0 0 0
117       8    4    0.3512850000000000   23.3481803065329991 -16.0501549636952987  30.5733901616288541 0 0 0
118       9    5   -0.1079060000000000   4.8226538871670401  -20.9197681840523835  5.0418926818682479  0 0 0
119       9    7   -0.0515450000000000   4.0155794847666675  -22.1907932109626742  4.8266838831220813  0 0 0
120       9    6    0.4196630000000000   4.7975149240611294  -23.2136006346434378  4.0063870076928865  0 0 0
121       9    8   -0.9730690000000000   4.0003918921860002  -24.4180295642506060  3.8065227665702555  0 0 0
122       9    1    0.0285690000000000   4.2459249927716227  -20.1997878115328042  5.6309313102756056  0 0 0
123       9    1    0.0285690000000000   5.0774405866548156  -20.4503160572021692  4.0863435008419975  0 0 0
124       9    1    0.0285690000000000   5.7522220908833592  -21.1317416003308232  5.5797905108570429  0 0 0
125       9    2    0.0140440000000000   3.0780817484637137  -21.9370188849255356  4.3170836221613635  0 0 0
126       9    2    0.0140440000000000   3.7491812420342905  -22.6138521810773909  5.8029145068348260  0 0 0
127       9    3   -0.0517540000000000   5.7303954262055292  -23.4762146419179274  4.5173324022332775  0 0 0
128       9    3   -0.0517540000000000   5.0593382666782301  -22.7927704494535668  3.0296764811836931  0 0 0
129       9    4    0.3512850000000000   3.7749423157042319  -24.8344357003170337  4.7090678555328020  0 0 0
130       9    4    0.3512850000000000   4.5539773905325376  -25.1098923198794211  3.3030177189350693  0 0 0
131       10   5   -0.1079060000000000  -15.0037543498549919 -12.6261185659111685  13.2401516566714115 0 0 0
132       10   7   -0.0515450000000000  -13.7373612305165391 -13.3911103259549691  12.8876965368940120 0 0 0
133       10   6    0.4196630000000000  -12.9441366898391461 -13.7596328391570086  14.1388683901301686 0 0 0
134       10   8   -0.9730690000000000  -11.7320110296963680 -14.4835672789093159  13.7746291826525251 0 0 0
135       10   1    0.0285690000000000  -15.5577887331597928 -12.3710717372108014  12.3313329302545487 0 0 0
136       10   1    0.0285690000000000  -14.7665399419508390 -11.6956218151409761  13.7657759716424746 0 0 0
137       10   1    0.0285690000000000  -15.6587668710513164 -13.2256032568328656  13.8804176571950588 0 0 0
138       10   2    0.0140440000000000  -13.1222885003785947 -12.7759195108074977  12.2196983050858421 0 0 0
139       10   2    0.0140440000000000  -14.0105189357454449 -14.2972055946891690  12.3333055389047104 0 0 0
140       10   3   -0.0517540000000000  -13.5527383035793907 -14.3820180500498136  14.8041037389464183 0 0 0
141       10   3   -0.0517540000000000  -12.6672463107707198 -12.8544729319011921  14.6898949052598695 0 0 0
142       10   4    0.3512850000000000  -11.9790590536805421 -15.3431433589291313  13.2858496251797558 0 0 0
143       10   4    0.3512850000000000  -11.2407227941037782 -14.7674474788335548  14.6212083055106827 0 0 0
144       11   5   -0.1079060000000000  -31.1692971347533643 -33.0652858141870354  30.7451140769397249 0 0 0
145       11   7   -0.0515450000000000  -32.0597953728494929 -31.9219108419016706  31.2065196445254678 0 0 0
146       11   6    0.4196630000000000  -31.3370344688348474 -31.0231597367189877  32.2066737064383517 0 0 0
147       11   8   -0.9730690000000000  -32.2131985929853286 -29.9412519808755100  32.6400464382724493 0 0 0
148       11   1    0.0285690000000000  -31.7045126849874777 -33.6976021245483253  30.0297995596547089 0 0 0
149       11   1    0.0285690000000000  -30.8647990739548312 -33.6910083469624695  31.5901750463064523 0 0 0
150       11   1    0.0285690000000000  -30.2668703298565873 -32.6863467259987388  30.2548132730990496 0 0 0
151       11   2    0.0140440000000000  -32.9677020184085947 -32.3368485031052089  31.6609732729239610 0 0 0
152       11   2    0.0140440000000000  -32.3729840861339895 -31.3384208960488699  30.3322053648983463 0 0 0
153       11   3   -0.0517540000000000  -30.4343794601585138 -30.5996480171477501  31.7526372508564982 0 0 0
154       11   3   -0.0517540000000000  -31.0285567228722989 -31.6048938779967479  33.0819107196054674 0 0 0
155       11   4    0.3512850000000000  -32.4837414119375083 -29.3755573672813313  31.8365506968002663 0 0 0
156       11   4    0.3512850000000000  -31.7006383790312221 -29.3215755039914328  33.2660906864433343 0 0 0
157       12   5   -0.1079060000000000   21.4579665422427688 -14.3304454527749474 -32.6908248080948240 0 0 0
158       12   7   -0.0515450000000000   21.9886093684168067 -13.2116673996723080 -31.8076813338926492 0 0 0
159       12   6    0.4196630000000000   23.2235699624193970 -13.6568044453611108 -31.0284699615319646 0 0 0
160       12   8   -0.9730690000000000   23.7075157343332776 -12.5712389913866751 -30.1838730018618762 0 0 0
161       12   1    0.0285690000000000   20.5737815268131037 -13.9925103615563469 -33.2403438640089348 0 0 0
162       12   1    0.0285690000000000   21.1733626562303776 -15.2015080935960150 -32.0919706498622190 0 0 0
163       12   1    0.0285690000000000   22.2113129659571200 -14.6454421569711108 -33.4199407736464948 0 0 0
164       12   2    0.0140440000000000   21.1986965555511446 -12.8983986445293812 -31.1142144816049182 0 0 0
165       12   2    0.0140440000000000   22.2303132243696417 -12.3455511870293524 -32.4356901704662661 0 0 0
166       12   3   -0.0517540000000000   24.0179356387478009 -13.9616720907935150 -31.7186411253310681 0 0 0
167       12   3   -0.0517540000000000   22.9809199919409899 -14.5187126752594065 -30.3977179063150054 0 0 0
168       12   4    0.3512850000000000   23.9636292212289028 -11.7730147075440499 -30.7635738676660253 0 0 0
169       12   4    0.3512850000000000   24.5606078522944529 -12.8659665378532591 -29.7105677924818323 0 0 0
170       13   5   -0.1079060000000000   3.7208638743152469   2.9528359655897458  -31.6945733819024724 0 0 0
171       13   7   -0.0515450000000000   4.0181433707213570   4.3336665240793870  -31.1305517450323030 0 0 0
172       13   6    0.4196630000000000   5.2008719096643086   4.9830138946697868  -31.8446569308958516 0 0 0
173       13   8   -0.9730690000000000   5.4712613675323691   6.3002332791302562  -31.2808994266660640 0 0 0
174       13   1    0.0285690000000000   2.8712389735509825   2.5041853249503090  -31.1703553062362921 0 0 0
175       13   1    0.0285690000000000   4.5821717773262076   2.2874145215051360  -31.5773607675505055 0 0 0
176       13   1    0.0285690000000000   3.4719779235489061   3.0092105341016575  -32.7591115637147681 0 0 0
177       13   2    0.0140440000000000   4.2291884350632607   4.2439069552631823  -30.0579851779965566 0 0 0
178       13   2    0.0140440000000000   3.1243550944546365   4.9610155266086045  -31.2332595482108104 0 0 0
179       13   3   -0.0517540000000000   4.9894302483495716   5.0825842853262984  -32.9150192552818339 0 0 0
180       13   3   -0.0517540000000000   6.0945499667983078   4.3588597569557779  -31.7379606204081668 0 0 0
181       13   4    0.3512850000000000   4.6552996597600620   6.8991569048425561  -31.4005079602785173 0 0 0
182       13   4    0.3512850000000000   6.2282916470239496   6.7415607750864535  -31.8012680525899505 0 0 0
183       14   5   -0.1079060000000000  -14.3422951206877567 -21.7981885896463261 -30.2289007650647150 0 0 0
184       14   7   -0.0515450000000000  -13.2188136334594066 -22.5069315067782902 -30.9696175546479147 0 0 0
185       14   6    0.4196630000000000  -13.6493365214119713 -22.9110239169686380 -32.3773832979360350 0 0 0
186       14   8   -0.9730690000000000  -12.5595914554719386 -23.5954456114006348 -33.0629651856417937 0 0 0
187       14   1    0.0285690000000000  -14.0148471899524569 -21.5170340734674355 -29.2230755064390451 0 0 0
188       14   1    0.0285690000000000  -15.2186960278520171 -22.4469461374377808 -30.1318910072808279 0 0 0
189       14   1    0.0285690000000000  -14.6451821779098772 -20.8870629483758741 -30.7547080923119012 0 0 0
190       14   2    0.0140440000000000  -12.9180525181547079 -23.3939132599290254 -30.3988269089656988 0 0 0
191       14   2    0.0140440000000000  -12.3478593699464465 -21.8420036568119862 -31.0173959159402344 0 0 0
192       14   3   -0.0517540000000000  -13.9416460639499071 -22.0260290803543057 -32.9532622911344504 0 0 0
193       14   3   -0.0517540000000000  -14.5161032110663211 -23.5788760382714138 -32.3294040328622216 0 0 0
194       14   4    0.3512850000000000  -11.7564565784836486 -22.9725220905889209 -33.1387931216847278 0 0 0
195       14   4    0.3512850000000000  -12.8440528759810242 -23.8122443305151421 -34.0172860568545303 0 0 0
196       15   5   -0.1079060000000000   12.2867151414115305 -30.3981374237585911 -13.2209696366535585 0 0 0
197       15   7   -0.0515450000000000   13.3965106142033985 -31.0871012291533191 -13.9999891617790144 0 0 0
198       15   6    0.4196630000000000   14.0468241499321067 -32.1966652537684510 -13.1775507133052656 0 0 0
199       15   8   -0.9730690000000000   15.1118655165896723 -32.8351595121561317 -13.9417573991005117 0 0 0
200       15   1    0.0285690000000000   11.8336146664139079 -29.6068362318494636 -13.8263594643184557 0 0 0
201       15   1    0.0285690000000000   12.6749118527346418 -29.9439500634622924 -12.3036948936975516 0 0 0
202       15   1    0.0285690000000000   11.5003698674582804 -31.1087314181827317 -12.9469602677996267 0 0 0
203       15   2    0.0140440000000000   14.1479781108751368 -30.3414567836185434 -14.2868807831084759 0 0 0
204       15   2    0.0140440000000000   12.9790755466452108 -31.4992166835368543 -14.9267480102562953 0 0 0
205       15   3   -0.0517540000000000   13.3004377603264494 -32.9480584869464721 -12.8971707731424488 0 0 0
206       15   3   -0.0517540000000000   14.4678890594003864 -31.7842669386023147 -12.2543795852024626 0 0 0
207       15   4    0.3512850000000000   14.7260391490699227 -33.2478153013300499 -14.7900865999935114 0 0 0
208       15   4    0.3512850000000000   15.5007013092668195 -33.6061144103988809 -13.4003854559702660 0 0 0
209       16   5   -0.1079060000000000   5.0205281162479745  -22.8041406076103925 -29.9260464888730553 0 0 0
210       16   7   -0.0515450000000000   5.0704294221854642  -22.2322055840198622 -31.3344458376219244 0 0 0
211       16   6    0.4196630000000000   4.0142901288004484  -22.8720511958174164 -32.2320049760811216 0 0 0
212       16   8   -0.9730690000000000   4.0880392732640383  -22.3142457583397160 -33.5771495954106598 0 0 0
213       16   1    0.0285690000000000   5.7841632844819024  -22.3337611281412798 -29.2987037314184740 0 0 0
214       16   1    0.0285690000000000   5.2048766291795996  -23.8831806568128542 -29.9340463011868110 0 0 0
215       16   1    0.0285690000000000   4.0441577506044295  -22.6253035168345313 -29.4644383725493526 0 0 0
216       16   2    0.0140440000000000   6.0706543317166375  -22.3985438863791693 -31.7526294571260586 0 0 0
217       16   2    0.0140440000000000   4.9166381813339477  -21.1473826270079925 -31.2846406895208489 0 0 0
218       16   3   -0.0517540000000000   3.0131201578948885  -22.6996877487212636 -31.8218258984064022 0 0 0
219       16   3   -0.0517540000000000   4.1708350619083303  -23.9547509954613567 -32.2855567068582232 0 0 0
220       16   4    0.3512850000000000   3.9152217614608396  -21.3103755672846980 -33.5426827065852962 0 0 0
221       16   4    0.3512850000000000   3.3446901490306296  -22.7125919681152517 -34.1493389751258576 0 0 0
222       17   5   -0.1079060000000000  -30.5572215113375876  23.9778795505430153  4.4426109290951539  0 0 0
223       17   7   -0.0515450000000000  -31.6905221684163187  23.0506335177442168  4.0314747564907432  0 0 0
224       17   6    0.4196630000000000  -31.6651873918791864  21.7521270114056691  4.8337739669442250  0 0 0
225       17   8   -0.9730690000000000  -32.7544481876956723  20.8776281850183025  4.4157277845141394  0 0 0
226       17   1    0.0285690000000000  -30.5921245802178667  24.9018601712168426  3.8569522839767183  0 0 0
227       17   1    0.0285690000000000  -29.5837927190322461  23.5059742968426555  4.2749278445547993  0 0 0
228       17   1    0.0285690000000000  -30.6327358237240936  24.2439097903487983  5.5018037109501243  0 0 0
229       17   2    0.0140440000000000  -31.6034260292591860  22.8328411650460978  2.9600380603905316  0 0 0
230       17   2    0.0140440000000000  -32.6463037755781329  23.5677074911517970  4.1800990211169289  0 0 0
231       17   3   -0.0517540000000000  -31.7613338114350050  21.9656806440454488  5.9040300373745414  0 0 0
232       17   3   -0.0517540000000000  -30.7126154649422460  21.2334398317902924  4.6815133554444239  0 0 0
233       17   4    0.3512850000000000  -33.6480600307861053  21.3395123709720416  4.5798316904833687  0 0 0
234       17   4    0.3512850000000000  -32.7557382424604242  20.0390272144205817  4.9948608067734774  0 0 0
235       18   5   -0.1079060000000000  -6.0401150454235681   22.3914511897697146  3.6718030033252762  0 0 0
236       18   7   -0.0515450000000000  -5.1125637582584940   22.6019853447277583  4.8586107031547447  0 0 0
237       18   6    0.4196630000000000  -3.6493537154168907   22.4333186007564791  4.4573465495033000  0 0 0
238       18   8   -0.9730690000000000  -2.7818078916216091   22.6310590284795587  5.6124495129482366  0 0 0
239       18   1    0.0285690000000000  -7.0831509615639048   22.5161423329804116  3.9791833160424575  0 0 0
240       18   1    0.0285690000000000  -5.9258786945892332   21.3842493522869717  3.2584383776986385  0 0 0
241       18   1    0.0285690000000000  -5.8311575661632569   23.1151250029938495  2.8774499124929855  0 0 0
242       18   2    0.0140440000000000  -5.3718457481239845   21.8845508816764536  5.6466820711523882  0 0 0
243       18   2    0.0140440000000000  -5.2786180488857521   23.6060876721858079  5.2674843207404267  0 0 0
244       18   3   -0.0517540000000000  -3.3846158734151142   23.1549153165696175  3.6766357201689490  0 0 0
245       18   3   -0.0517540000000000  -3.4825605454811188   21.4289676349520590  4.0535246381977021  0 0 0
246       18   4    0.3512850000000000  -2.9079153059771943   23.5735203046410149  5.9794275535455688  0 0 0
247       18   4    0.3512850000000000  -1.8080610931890178   22.5668485785260771  5.3186085691384619  0 0 0
248       19   5   -0.1079060000000000  -22.0030873448048929 -5.8246143380337703   30.5670278027650255 0 0 0
249       19   7   -0.0515450000000000  -22.9448011365399118 -4.7322658625580125   31.0498719594883354 0 0 0
250       19   6    0.4196630000000000  -22.4472577129329842 -4.1035712054962552   32.3489634076964734 0 0 0
251       19   8   -0.9730690000000000  -23.3702338577326678 -3.0668495645361933   32.7954196369013147 0 0 0
252       19   1    0.0285690000000000  -22.3764501041885779 -6.2626762905193250   29.6360839613385103 0 0 0
253       19   1    0.0285690000000000  -21.9176812248333981 -6.6251143032226132   31.3088373466535401 0 0 0
254       19   1    0.0285690000000000  -21.0023611158483519 -5.4238269918798814   30.3765537445803524 0 0 0
255       19   2    0.0140440000000000  -23.9435899353811976 -5.1607871086495942   31.1974738465267301 0 0 0
256       19   2    0.0140440000000000  -23.0330749775178276 -3.9666573398864062   30.2694717636838995 0 0 0
257       19   3   -0.0517540000000000  -21.4534444148486507 -3.6663640483136737   32.2023947392879109 0 0 0
258       19   3   -0.0517540000000000  -22.3637320727108708 -4.8672990557866713   33.1295761146237027 0 0 0
259       19   4    0.3512850000000000  -23.4337587071829105 -2.3357139054293987   32.0881612252971919 0 0 0
260       19   4    0.3512850000000000  -22.9987486360235032 -2.6219042337973528   33.6336741879210948 0 0 0
261       20   5   -0.1079060000000000  -3.2017749028255067   3.5978493343966278   30.8661427636695436 0 0 0
262       20   7   -0.0515450000000000  -4.3810992678968832   3.8615891125633728   31.7896274189083599 0 0 0
263       20   6    0.4196630000000000  -4.8523691091598335   5.3101567209779503   31.6896192114047466 0 0 0
264       20   8   -0.9730690000000000  -5.9764083015444314   5.5399117890161662   32.5894794183225471 0 0 0
265       20   1    0.0285690000000000  -2.8787011173076875   2.5556525973353992   30.9521878133245174 0 0 0
266       20   1    0.0285690000000000  -2.3521817649998189   4.2390782109565990   31.1218629760602532 0 0 0
267       20   1    0.0285690000000000  -3.4718515347285424   3.7847374510336849   29.8218749370274701 0 0 0
268       20   2    0.0140440000000000  -4.0860325771028192   3.6321058369763093   32.8207767360829692 0 0 0
269       20   2    0.0140440000000000  -5.1990215555142489   3.1794848369816062   31.5275014277288399 0 0 0
270       20   3   -0.0517540000000000  -5.1566428479453235   5.5399118548982189   30.6625226168126055 0 0 0
271       20   3   -0.0517540000000000  -4.0369473846610013   5.9911209646898165   31.9560550762977194 0 0 0