LAMMPS data file via vdw_self_gen.py, on 2021-08-05 13:21:21.339787

7000 atoms
8 atom types
6500 bonds
8 bond types
12000 angles
14 angle types
13500 dihedrals
10 dihedral types

-43.7802730351057079  43.7802730351057079 xlo xhi
-43.7802730351057079  43.7802730351057079 ylo yhi
-43.7802730351057079  43.7802730351057079 zlo zhi

Masses

1  35.452700
2  1.007940
3  1.007940
4  1.007940
5  12.011000
6  12.011000
7  12.011000
8  12.011000

Atoms

1         0    7   -0.1079060000000000  -15.8266978985223048  33.0756243022341465  13.4106739812881042 0 0 0
2         0    8   -0.0058890000000000  -14.6606319748845593  33.2763535158154156  14.3655373874074801 0 0 0
3         0    5    0.0690980000000000  -14.5345789795082680  34.7380305627292501  14.7949002857602814 0 0 0
4         0    6   -0.0790670000000000  -13.3645460989586873  34.9307346099836025  15.7504733102877843 0 0 0
5         0    1   -0.1873450000000000  -13.2367148127494936  36.6365123712499070  16.2382851293691104 0 0 0
6         0    3    0.0285690000000000  -15.9047135816379956  32.0224207785883692  13.1233426527349835 0 0 0
7         0    3    0.0285690000000000  -15.6932036856406700  33.6673743852140674  12.4993400260223240 0 0 0
8         0    3    0.0285690000000000  -16.7716382107487263  33.3714812203025630  13.8773384245023870 0 0 0
9         0    4    0.0140440000000000  -13.7351275389614358  32.9499029374797203  13.8771340375101726 0 0 0
10        0    4    0.0140440000000000  -14.8042259399115288  32.6405150624990412  15.2470998158787037 0 0 0
11        0    4    0.0140440000000000  -15.4659183629721309  35.0581091363860793  15.2781712830226475 0 0 0
12        0    4    0.0140440000000000  -14.3978391943103148  35.3687089266578383  13.9076512241567336 0 0 0
13        0    2    0.0846130000000000  -12.4184311028977419  34.6483187764468070  15.2791895094879777 0 0 0
14        0    2    0.0846130000000000  -13.4936734487894867  34.3344420188976187  16.6588037630645438 0 0 0
15        1    7   -0.1079060000000000  -35.5086829517337748 -23.4703852959577439 -25.3333485373747820 0 0 0
16        1    8   -0.0058890000000000  -34.6830746687330276 -23.8579706850802395 -24.1168311273146898 0 0 0
17        1    5    0.0690980000000000  -33.4918540725612601 -24.7336779266643667 -24.5052535312685542 0 0 0
18        1    6   -0.0790670000000000  -32.6705608808379182 -25.1177926509271465 -23.2816666040609235 0 0 0
19        1    1   -0.1873450000000000  -31.2900715142931283 -26.1344652216354341 -23.7555916743264497 0 0 0
20        1    3    0.0285690000000000  -36.3498456218896777 -22.8369959485719036 -25.0347740938027989 0 0 0
21        1    3    0.0285690000000000  -35.9118210344065076 -24.3576249760226773 -25.8321509832561489 0 0 0
22        1    3    0.0285690000000000  -34.9043605632604326 -22.9140252978947139 -26.0568657904829486 0 0 0
23        1    4    0.0140440000000000  -35.3217277407827552 -24.3919372380226811 -23.4036213074859063 0 0 0
24        1    4    0.0140440000000000  -34.3291621469742907 -22.9481721093600548 -23.6177574259840135 0 0 0
25        1    4    0.0140440000000000  -32.8607407881536986 -24.1942790114094919 -25.2222884186807157 0 0 0
26        1    4    0.0140440000000000  -33.8529938152053305 -25.6385238422406871 -25.0097293188419734 0 0 0
27        1    2    0.0846130000000000  -33.2708836441502029 -25.6860419767578385 -22.5649337436156543 0 0 0
28        1    2    0.0846130000000000  -32.2727491615024178 -24.2313425369438953 -22.7784221609933297 0 0 0
29        2    7   -0.1079060000000000  -34.2524195894185226 -25.1173803906187061 -32.2626435130245355 0 0 0
30        2    8   -0.0058890000000000  -34.6252825111456772 -24.2863842819173321 -33.4800936305752543 0 0 0
31        2    5    0.0690980000000000  -33.5424561271024544 -24.3548099970697187 -34.5569160807153750 0 0 0
32        2    6   -0.0790670000000000  -33.9231200621625675 -23.5198664210893114 -35.7723155171450671 0 0 0
33        2    1   -0.1873450000000000  -32.6515240406979856 -23.6143305490775042 -37.0125167371569148 0 0 0
34        2    3    0.0285690000000000  -35.0439803081446541 -25.0621801751912265 -31.5088080096244134 0 0 0
35        2    3    0.0285690000000000  -33.3250906700708214 -24.7532653520274586 -31.8087715513292437 0 0 0
36        2    3    0.0285690000000000  -34.1131350718090474 -26.1689631678608166 -32.5328151213812902 0 0 0
37        2    4    0.0140440000000000  -34.7797640197712283 -23.2457582265044636 -33.1720365750017478 0 0 0
38        2    4    0.0140440000000000  -35.5769594973972900 -24.6496081003379430 -33.8856074433745178 0 0 0
39        2    4    0.0140440000000000  -33.3906898376429311 -25.3992528432423477 -34.8560821412277804 0 0 0
40        2    4    0.0140440000000000  -32.5920708336613316 -23.9962720291626681 -34.1423293172027087 0 0 0
41        2    2    0.0846130000000000  -34.0485252779567631 -22.4664272209832490 -35.5048457184172364 0 0 0
42        2    2    0.0846130000000000  -34.8535107575031375 -23.8787359624061395 -36.2227472483083233 0 0 0
43        3    7   -0.1079060000000000  -15.7673781628572680 -25.7889190646593072  23.7367727742431427 0 0 0
44        3    8   -0.0058890000000000  -15.2506884884393745 -24.6776541384701069  24.6367106187477702 0 0 0
45        3    5    0.0690980000000000  -14.0112498266042955 -24.0080917825790863  24.0432296159160508 0 0 0
46        3    6   -0.0790670000000000  -13.4998471744173525 -22.8969238182786796  24.9504256691750292 0 0 0
47        3    1   -0.1873450000000000  -12.0595879342880767 -22.1309062281816153  24.2413069539487829 0 0 0
48        3    3    0.0285690000000000  -16.6589834955934073 -26.2481966860679279  24.1749364405936262 0 0 0
49        3    3    0.0285690000000000  -15.0119807928015092 -26.5704777048623200  23.6061613320304708 0 0 0
50        3    3    0.0285690000000000  -16.0353930476514961 -25.4013037869643270  22.7487739735221126 0 0 0
51        3    4    0.0140440000000000  -15.0137513213003828 -25.0938476157730435  25.6227684474163695 0 0 0
52        3    4    0.0140440000000000  -16.0430003609959257 -23.9335434424371556  24.7802489392593657 0 0 0
53        3    4    0.0140440000000000  -14.2553557650344924 -23.5986633551546632  23.0552140032155819 0 0 0
54        3    4    0.0140440000000000  -13.2254112682991227 -24.7594426840355304  23.8962825231873026 0 0 0
55        3    2    0.0846130000000000  -13.2187227545741806 -23.2867712943824756  25.9332729185700401 0 0 0
56        3    2    0.0846130000000000  -14.2565904376364543 -22.1184931156426501  25.0871305076631721 0 0 0
57        4    7   -0.1079060000000000  -14.4331155372640243  16.1447338017182140  13.3935947713776837 0 0 0
58        4    8   -0.0058890000000000  -15.0032886370176755  15.2880848424808562  14.5128897623228124 0 0 0
59        4    5    0.0690980000000000  -14.2297965773233202  13.9782923035473612  14.6642013089540715 0 0 0
60        4    6   -0.0790670000000000  -14.8071195085817884  13.1261184311799948  15.7865780375517168 0 0 0
61        4    1   -0.1873450000000000  -13.8926052778653695  11.6088544370323667  15.9464300731356925 0 0 0
62        4    3    0.0285690000000000  -14.9945949612252107  17.0803407294978484  13.3083660522804941 0 0 0
63        4    3    0.0285690000000000  -14.4927320886865729  15.6240187103040142  12.4324391627637620 0 0 0
64        4    3    0.0285690000000000  -13.3845672038294463  16.3938765123983252  13.5851502838709202 0 0 0
65        4    4    0.0140440000000000  -16.0580378931669827  15.0762352618537676  14.3024377843311434 0 0 0
66        4    4    0.0140440000000000  -14.9666537112264209  15.8526194589287321  15.4520492960785631 0 0 0
67        4    4    0.0140440000000000  -13.1750641962240813  14.1989220653390085  14.8697647049478547 0 0 0
68        4    4    0.0140440000000000  -14.2651549417549770  13.4221156416509597  13.7191715889312089 0 0 0
69        4    2    0.0846130000000000  -15.8509841221469259  12.8653560264691027  15.5882088198391386 0 0 0
70        4    2    0.0846130000000000  -14.7542261741805323  13.6483726080926893  16.7466591841081645 0 0 0
71        5    7   -0.1079060000000000  -34.1351573789121119 -35.9690993410774738  5.2968618086543087  0 0 0
72        5    8   -0.0058890000000000  -33.7093312818125170 -34.7153199280876734  4.5495496928741197  0 0 0
73        5    5    0.0690980000000000  -34.3546110201448016 -33.4635572946640565  5.1440629513151697  0 0 0
74        5    6   -0.0790670000000000  -33.9235795080159974 -32.2126199923816614  4.3900077159972071  0 0 0
75        5    1   -0.1873450000000000  -34.6839236104171675 -30.7688433817851319  5.0980789864482521  0 0 0
76        5    3    0.0285690000000000  -33.6554504158443706 -36.8513846831921228  4.8617328552692829  0 0 0
77        5    3    0.0285690000000000  -35.2194285870468136 -36.1095113256501890  5.2406580240978053  0 0 0
78        5    3    0.0285690000000000  -33.8500252708045934 -35.9129605277172104  6.3522135636444048  0 0 0
79        5    4    0.0140440000000000  -33.9882193001757642 -34.8132589100156551  3.4939476361158333  0 0 0
80        5    4    0.0140440000000000  -32.6173266030043862 -34.6261055248133971  4.5899062599924427  0 0 0
81        5    4    0.0140440000000000  -34.0746324493618715 -33.3755097314982976  6.2010652331589347  0 0 0
82        5    4    0.0140440000000000  -35.4465887542834253 -33.5627049362250816  5.1064034476227302  0 0 0
83        5    2    0.0846130000000000  -34.2210572728972409 -32.2626436694059038  3.3383398402692106  0 0 0
84        5    2    0.0846130000000000  -32.8391971517633792 -32.0750093579705648  4.4398189280380542  0 0 0
85        6    7   -0.1079060000000000  -23.3086515479341330  25.9658928665100497  14.9716615196765961 0 0 0
86        6    8   -0.0058890000000000  -24.2447692912586099  25.0357586618310997  14.2164794146718965 0 0 0
87        6    5    0.0690980000000000  -24.3906692141519024  23.6906834918003710  14.9279761785904270 0 0 0
88        6    6   -0.0790670000000000  -25.3291454963607023  22.7649928262031125  14.1653552662377180 0 0 0
89        6    1   -0.1873450000000000  -25.4857836217861262  21.2075390652730107  15.0102110288551529 0 0 0
90        6    3    0.0285690000000000  -23.2255643430233292  26.9250269032358744  14.4510447533559940 0 0 0
91        6    3    0.0285690000000000  -22.3058165570794493  25.5337473581196264  15.0497043559620653 0 0 0
92        6    3    0.0285690000000000  -23.6793269946384441  26.1593059759457987  15.9832989520153586 0 0 0
93        6    4    0.0140440000000000  -23.8579862568480259  24.8813482089134972  13.2024663134143658 0 0 0
94        6    4    0.0140440000000000  -25.2264981206581389  25.5142808939005512  14.1201100225335665 0 0 0
95        6    4    0.0140440000000000  -24.7734464183457561  23.8542629752154554  15.9429232520160298 0 0 0
96        6    4    0.0140440000000000  -23.4041261477838880  23.2209491323514321  15.0266994010575452 0 0 0
97        6    2    0.0846130000000000  -24.9514071153925983  22.5604391330034488  13.1591384845042914 0 0 0
98        6    2    0.0846130000000000  -26.3300435922277529  23.1990072251854897  14.0808718876022425 0 0 0
99        7    7   -0.1079060000000000   23.1022648615561081  13.2529626968750005 -4.0987415163000893  0 0 0
100       7    8   -0.0058890000000000   23.8193666166386819  14.5873516443381472 -4.2288848586026093  0 0 0
101       7    5    0.0690980000000000   24.7677071028484761  14.5980602017898811 -5.4277498612666628  0 0 0
102       7    6   -0.0790670000000000   25.4821244743559276  15.9373448528167838 -5.5508597285079055  0 0 0
103       7    1   -0.1873450000000000   26.5785467346244282  15.9288943398128460 -6.9514902277537551  0 0 0
104       7    3    0.0285690000000000   22.4224630707097603  13.2697158740674688 -3.2411447243191236  0 0 0
105       7    3    0.0285690000000000   23.8168223022201246  12.4370114430538941 -3.9499139013240159  0 0 0
106       7    3    0.0285690000000000   22.5131678803606370  13.0348124731604464 -4.9951758077234398  0 0 0
107       7    4    0.0140440000000000   24.3799455813557842  14.7860646654800281 -3.3080533687276370  0 0 0
108       7    4    0.0140440000000000   23.0759762710954028  15.3861826162805322 -4.3351955035006489  0 0 0
109       7    4    0.0140440000000000   24.2000775657444258  14.3938541818544881 -6.3439871707717899  0 0 0
110       7    4    0.0140440000000000   25.5042675824449354  13.7924142113238641 -5.3178541705291931  0 0 0
111       7    2    0.0846130000000000   26.0821034065866080  16.1487747034505027 -4.6607342267721465  0 0 0
112       7    2    0.0846130000000000   24.7684012669475386  16.7544969261893257 -5.6928618773987845  0 0 0
113       8    7   -0.1079060000000000   23.0566568998607231 -23.2542469574441384  3.8019700894348905  0 0 0
114       8    8   -0.0058890000000000   24.4004755587594211 -23.8197962944317929  4.2333300774130356  0 0 0
115       8    5    0.0690980000000000   24.2523684194569142 -24.7675257356512475  5.4235463716778609  0 0 0
116       8    6   -0.0790670000000000   25.6022862185305087 -25.3291508419277704  5.8496106536168728  0 0 0
117       8    1   -0.1873450000000000   25.4073318129071453 -26.4293721974306060  7.2336210321991796  0 0 0
118       8    3    0.0285690000000000   23.1838357955036152 -22.5865752148068317  2.9441103258448811  0 0 0
119       8    3    0.0285690000000000   22.5941350964531047 -22.6817126124232722  4.6123998820413235  0 0 0
120       8    3    0.0285690000000000   22.3691386694687111 -24.0546730369273725  3.5106695807471358  0 0 0
121       8    4    0.0140440000000000   25.0712980778279864 -22.9934661785797196  4.4957075931158759  0 0 0
122       8    4    0.0140440000000000   24.8548008285561863 -24.3511266337363779  3.3887362693854230  0 0 0
123       8    4    0.0140440000000000   23.5762901309977053 -25.5884611021187247  5.1545157614176338  0 0 0
124       8    4    0.0140440000000000   23.7913153693046944 -24.2311314078727769  6.2622209658873311  0 0 0
125       8    2    0.0846130000000000   26.2847252838505021 -24.5300750728294261  6.1541686071578479  0 0 0
126       8    2    0.0846130000000000   26.0685765560115890 -25.8959214313088140  5.0380397335584739  0 0 0
127       9    7   -0.1079060000000000   16.0858726505446796  25.3563806449978095 -33.2928519336525497 0 0 0
128       9    8   -0.0058890000000000   14.7333279065820530  25.1134716703378480 -33.9435315978565981 0 0 0
129       9    5    0.0690980000000000   14.4701817405306041  23.6213809624381454 -34.1464134853966073 0 0 0
130       9    6   -0.0790670000000000   13.1142415335297127  23.3866185019904584 -34.7987510811267171 0 0 0
131       9    1   -0.1873450000000000   12.8276720059680240  21.6456455242563983 -35.0242948154065132 0 0 0
132       9    3    0.0285690000000000   16.2501899567544896  26.4287666158137498 -33.1483820271768721 0 0 0
133       9    3    0.0285690000000000   16.8967750759731992  24.9697199335951012 -33.9185109416526842 0 0 0
134       9    3    0.0285690000000000   16.1440895357751337  24.8688062949203648 -32.3145364121460048 0 0 0
135       9    4    0.0140440000000000   14.6995613872897319  25.6327652947287810 -34.9083425778116379 0 0 0
136       9    4    0.0140440000000000   13.9480637358044568  25.5476271467712053 -33.3135067688411795 0 0 0
137       9    4    0.0140440000000000   14.5103938448129561  23.1086018079859663 -33.1774786461383044 0 0 0
138       9    4    0.0140440000000000   15.2629908903619409  23.1925464880751449 -34.7718881135323272 0 0 0
139       9    2    0.0846130000000000   13.0611401960054643  23.8621146522243315 -35.7826638662687273 0 0 0
140       9    2    0.0846130000000000   12.3034403705608106  23.7787891793535024 -34.1773763374777033 0 0 0
141       10   7   -0.1079060000000000  -35.3382002768573713  5.0392093893319121   16.0716891573839114 0 0 0
142       10   8   -0.0058890000000000  -34.6946857093383159  5.3390550943682102   14.7271640983530183 0 0 0
143       10   5    0.0690980000000000  -33.4815437732767336  4.4436425834559650   14.4756393006280444 0 0 0
144       10   6   -0.0790670000000000  -32.8426674122159028  4.7503697949784014   13.1276826953957571 0 0 0
145       10   1   -0.1873450000000000  -31.4352077584805762  3.6975442845351791   12.8545623060668071 0 0 0
146       10   3    0.0285690000000000  -36.2088801547720252  5.6837792315685522   16.2276688678386520 0 0 0
147       10   3    0.0285690000000000  -34.6339500195987355  5.2153965050984947   16.8911451470435274 0 0 0
148       10   3    0.0285690000000000  -35.6724226282717254  3.9981367976301416   16.1234819254352608 0 0 0
149       10   4    0.0140440000000000  -34.3928828581138717  6.3925327147299864   14.6994834988350167 0 0 0
150       10   4    0.0140440000000000  -35.4362889803863723  5.1928249928383714   13.9329957115625280 0 0 0
151       10   4    0.0140440000000000  -33.7909635267036350  3.3917420850746050   14.5096827286913506 0 0 0
152       10   4    0.0140440000000000  -32.7470128169705177  4.5903087740694399   15.2772733615678202 0 0 0
153       10   2    0.0846130000000000  -32.4959477686586808  5.7870084799290318   13.0811377135460987 0 0 0
154       10   2    0.0846130000000000  -33.5478749208399378  4.5810962158894446   12.3083343181454605 0 0 0
155       11   7   -0.1079060000000000   34.4081835481972789 -26.2568113762487734 -24.2728409006529340 0 0 0
156       11   8   -0.0058890000000000   33.9789664223015180 -24.8941926053277882 -23.7524479493444645 0 0 0
157       11   5    0.0690980000000000   34.1156303671129990 -23.8163867017115756 -24.8278079104359151 0 0 0
158       11   6   -0.0790670000000000   33.6843519510209930 -22.4550114765479414 -24.2987634692744514 0 0 0
159       11   1   -0.1873450000000000   33.8497689494012661 -21.2167988275990034 -25.5650358065027845 0 0 0
160       11   3    0.0285690000000000   34.2939514569009987 -27.0145102182626076 -23.4913507244325572 0 0 0
161       11   3    0.0285690000000000   35.4578942063174125 -26.2447465713217944 -24.5834538725506064 0 0 0
162       11   3    0.0285690000000000   33.7992476282655616 -26.5589960828718077 -25.1308039888449954 0 0 0
163       11   4    0.0140440000000000   34.5912816590816874 -24.6321724766354500 -22.8817690325405252 0 0 0
164       11   4    0.0140440000000000   32.9382251463177695 -24.9507248965257027 -23.4122659725796041 0 0 0
165       11   4    0.0140440000000000   33.5040112225749525 -24.0883104999141331 -25.6969302650590521 0 0 0
166       11   4    0.0140440000000000   35.1576495368184538 -23.7700676813029581 -25.1679761970452454 0 0 0
167       11   2    0.0846130000000000   34.3022007279396561 -22.1467168392351432 -23.4501068749064494 0 0 0
168       11   2    0.0846130000000000   32.6371657822339003 -22.4677884639841920 -23.9816817533193145 0 0 0
169       12   7   -0.1079060000000000   6.2616815668240342  -25.4683212404612576  15.3721854520076082 0 0 0
170       12   8   -0.0058890000000000   5.2148843382197771  -24.3667032903275214  15.3229966938451536 0 0 0
171       12   5    0.0690980000000000   4.5544690590754771  -24.2837710703058391  13.9468733158172125 0 0 0
172       12   6   -0.0790670000000000   3.5079784344042775  -23.1781512437948116  13.9057178993933714 0 0 0
173       12   1   -0.1873450000000000   2.7515640380964763  -23.0997714040262672  12.2977151502737829 0 0 0
174       12   3    0.0285690000000000   6.7149989195737572  -25.5166751798419362  16.3671973492441865 0 0 0
175       12   3    0.0285690000000000   7.0585706732644109  -25.2843843327537243  14.6444125412588750 0 0 0
176       12   3    0.0285690000000000   5.8155070120034349  -26.4438413040122313  15.1542219586420046 0 0 0
177       12   4    0.0140440000000000   5.6885191903763159  -23.4088826021950496  15.5677737953233670 0 0 0
178       12   4    0.0140440000000000   4.4548941940058997  -24.5583714399894291  16.0896389715098849 0 0 0
179       12   4    0.0140440000000000   4.0872632309911063  -25.2470234808809906  13.7075874929501289 0 0 0
180       12   4    0.0140440000000000   5.3213093405725136  -24.0985302506146795  13.1844392620829360 0 0 0
181       12   2    0.0846130000000000   3.9565230748433851  -22.2013156426746185  14.1096802086995599 0 0 0
182       12   2    0.0846130000000000   2.7144838712468955  -23.3574922356105219  14.6375007394451337 0 0 0
183       13   7   -0.1079060000000000  -33.0741635302364188  33.7024535299207528  12.9215095258956616 0 0 0
184       13   8   -0.0058890000000000  -33.4667531146690891  33.5317596406720426  14.3804485562077939 0 0 0
185       13   5    0.0690980000000000  -34.5692377219428693  34.5118486281860797  14.7813162561763480 0 0 0
186       13   6   -0.0790670000000000  -34.9563349865234514  34.3348476761375210  16.2435262162464298 0 0 0
187       13   1   -0.1873450000000000  -36.2401969486905244  35.4827553986982309  16.6884816095006343 0 0 0
188       13   3    0.0285690000000000  -32.2913447505330353  32.9862100960129965  12.6530444389146624 0 0 0
189       13   3    0.0285690000000000  -32.6908357749008260  34.7106801242500183  12.7342732845410147 0 0 0
190       13   3    0.0285690000000000  -33.9310577815042791  33.5324667102240710  12.2619218247720791 0 0 0
191       13   4    0.0140440000000000  -32.5835130175550489  33.6855049349436797  15.0112540639035466 0 0 0
192       13   4    0.0140440000000000  -33.8067293358908358  32.5022063964523440  14.5432317467419878 0 0 0
193       13   4    0.0140440000000000  -35.4471967122598883  34.3547607272219935  14.1426413780167035 0 0 0
194       13   4    0.0140440000000000  -34.2246335915043645  35.5391891933506017  14.6096094672827430 0 0 0
195       13   2    0.0846130000000000  -34.1032601719261237  34.5185703820348166  16.9034580594980781 0 0 0
196       13   2    0.0846130000000000  -35.3332711663476644  33.3252751663793063  16.4332244027955454 0 0 0
197       14   7   -0.1079060000000000  -3.3246840661503021   25.5311138177894996 -14.3938163946184119 0 0 0
198       14   8   -0.0058890000000000  -4.0719898972896766   24.2089817782006662 -14.4663901118839036 0 0 0
199       14   5    0.0690980000000000  -5.5663905507203539   24.4236324310593069 -14.7060428394989131 0 0 0
200       14   6   -0.0790670000000000  -6.3075561350554352   23.0951485397200855 -14.7770056723725887 0 0 0
201       14   1   -0.1873450000000000  -8.0428476897364050   23.3673552158742801 -15.0574441239265759 0 0 0
202       14   3    0.0285690000000000  -2.2567968710983379   25.3548137240687055 -14.2312783467709281 0 0 0
203       14   3    0.0285690000000000  -3.6968109028962681   26.1467530557916739 -13.5685719522829444 0 0 0
204       14   3    0.0285690000000000  -3.4379613732473699   26.0976257867367529 -15.3235753165634154 0 0 0
205       14   4    0.0140440000000000  -3.9195897709472201   23.6575513102481843 -13.5313152947144442 0 0 0
206       14   4    0.0140440000000000  -3.6490000185340490   23.6007610908291454 -15.2746037214721273 0 0 0
207       14   4    0.0140440000000000  -5.7099855727943165   24.9798769586818885 -15.6405837387780871 0 0 0
208       14   4    0.0140440000000000  -5.9812760802878655   25.0381857795118137 -13.8974279471296924 0 0 0
209       14   2    0.0846130000000000  -6.2059995393579053   22.5352628964134887 -13.8425459172255341 0 0 0
210       14   2    0.0846130000000000  -5.9317584753823107   22.4761723325633582 -15.5973394532557545 0 0 0
211       15   7   -0.1079060000000000  -15.1967439857177915  25.2648607236649987  6.4829848880014014  0 0 0
212       15   8   -0.0058890000000000  -14.7630484128241459  24.0891140689892360  5.6220005479166506  0 0 0
213       15   5    0.0690980000000000  -14.4432709947330249  24.5297977256133350  4.1936161587330600  0 0 0
214       15   6   -0.0790670000000000  -14.0102738596266558  23.3468036628714515  3.3378883251859985  0 0 0
215       15   1   -0.1873450000000000  -13.6419918435849024  23.8812392964664717  1.6817706090788014  0 0 0
216       15   3    0.0285690000000000  -15.4116722582419730  24.9295830979289477  7.5024348145552029  0 0 0
217       15   3    0.0285690000000000  -16.1016194106137611  25.7320372420824057  6.0811577987468777  0 0 0
218       15   3    0.0285690000000000  -14.4108769031862973  26.0251536715572733  6.5338452279403798  0 0 0
219       15   4    0.0140440000000000  -15.5609864584192739  23.3375601910162800  5.6106905039014912  0 0 0
220       15   4    0.0140440000000000  -13.8809615100994872  23.6193339230125687  6.0728790141220932  0 0 0
221       15   4    0.0140440000000000  -13.6477242364163107  25.2848356438599176  4.2140439496477429  0 0 0
222       15   4    0.0140440000000000  -15.3278966563916246  25.0046477723555185  3.7513280888690588  0 0 0
223       15   2    0.0846130000000000  -14.8011243268030181  22.5933641577528697  3.2755572703769782  0 0 0
224       15   2    0.0846130000000000  -13.1097499738350880  22.8749035403175718  3.7424497464219888  0 0 0
225       16   7   -0.1079060000000000   15.6565767894558387  33.7826629623313721 -3.2306512414304711  0 0 0
226       16   8   -0.0058890000000000   14.6549216211329494  34.4486614836432423 -4.1606506893778423  0 0 0
227       16   5    0.0690980000000000   14.5394457592203281  33.6987459553830462 -5.4876901278987020  0 0 0
228       16   6   -0.0790670000000000   13.5349768223730749  34.3720949101257105 -6.4133655227623256  0 0 0
229       16   1   -0.1873450000000000   13.4150302622610198  33.4836836523653716 -7.9496979214319587  0 0 0
230       16   3    0.0285690000000000   15.7170804154250376  34.3291542045824087 -2.2843056202182828  0 0 0
231       16   3    0.0285690000000000   16.6556808406285164  33.7662267721839910 -3.6779088743265644  0 0 0
232       16   3    0.0285690000000000   15.3618740862838017  32.7518810524972395 -3.0096123686008598  0 0 0
233       16   4    0.0140440000000000   14.9661178701719830  35.4838249271124297 -4.3430234205879676  0 0 0
234       16   4    0.0140440000000000   13.6762738270158888  34.4859048780489772 -3.6677779822383982  0 0 0
235       16   4    0.0140440000000000   14.2324517483810347  32.6631397412922198 -5.2961995434166065  0 0 0
236       16   4    0.0140440000000000   15.5231972959260283  33.6596926109351386 -5.9718095503727406  0 0 0
237       16   2    0.0846130000000000   13.8369388565123828  35.3977226374972318 -6.6455452042273313  0 0 0
238       16   2    0.0846130000000000   12.5373746357053744  34.3951328164860470 -5.9644088766077630  0 0 0
239       17   7   -0.1079060000000000   14.0063951227646886  24.9274840447795079 -6.6424200466142933  0 0 0
240       17   8   -0.0058890000000000   14.7297435297014161  24.9880458351805927 -5.3064314869606264  0 0 0
241       17   5    0.0690980000000000   14.4722491630434860  23.7323383323431258 -4.4735827827789407  0 0 0
242       17   6   -0.0790670000000000   15.1995792749856680  23.8009456455913337 -3.1373509385875780  0 0 0
243       17   1   -0.1873450000000000   14.8879501500741682  22.3309790503908907 -2.1854767468470313  0 0 0
244       17   3    0.0285690000000000   14.2112243518858445  25.8304891096744633 -7.2259526001806531  0 0 0
245       17   3    0.0285690000000000   12.9235706325671611  24.8542145414572175 -6.4987497751194399  0 0 0
246       17   3    0.0285690000000000   14.3348061973126395  24.0627911375911907 -7.2278015927638668  0 0 0
247       17   4    0.0140440000000000   14.3959406202051543  25.8754875778165179 -4.7562596554033076  0 0 0
248       17   4    0.0140440000000000   15.8054724341886139  25.1022482872973214 -5.4848332940739910  0 0 0
249       17   4    0.0140440000000000   14.8044579510355536  22.8489850955465563 -5.0327952446589395  0 0 0
250       17   4    0.0140440000000000   13.3939400002126412  23.6209676442831977 -4.3047343771125233  0 0 0
251       17   2    0.0846130000000000   14.8610999039015272  24.6572173935379766 -2.5463931408398039  0 0 0
252       17   2    0.0846130000000000   16.2815114986146483  23.8810410219989429 -3.2798652615567869  0 0 0
253       18   7   -0.1079060000000000  -4.8707421637535973  -25.8842563448767322 -25.5191758655215395 0 0 0
254       18   8   -0.0058890000000000  -5.0721522970375439  -24.4374315627930336 -25.0973961979710971 0 0 0
255       18   5    0.0690980000000000  -4.6802296561748875  -24.2212219434530383 -23.6357561295260332 0 0 0
256       18   6   -0.0790670000000000  -4.8852012205646931  -22.7702618498870706 -23.2211080121172593 0 0 0
257       18   1   -0.1873450000000000  -4.4223716618753084  -22.5403879381850665 -21.5190722417169376 0 0 0
258       18   3    0.0285690000000000  -5.1480197235836593  -26.0151969320174778 -26.5698209620474337 0 0 0
259       18   3    0.0285690000000000  -5.4901809755855790  -26.5575338572543060 -24.9179176902566297 0 0 0
260       18   3    0.0285690000000000  -3.8245171295442306  -26.1847894855205432 -25.4037972653897768 0 0 0
261       18   4    0.0140440000000000  -6.1226183167227894  -24.1618844675348541 -25.2465981181377224 0 0 0
262       18   4    0.0140440000000000  -4.4710076449896690  -23.7873809120924307 -25.7440192254283460 0 0 0
263       18   4    0.0140440000000000  -3.6297284453513985  -24.5035854117210619 -23.4939383762436549 0 0 0
264       18   4    0.0140440000000000  -5.2807868830681324  -24.8793214069181694 -22.9955218143622879 0 0 0
265       18   2    0.0846130000000000  -5.9334968245159683  -22.4741593980202978 -23.3230902381908827 0 0 0
266       18   2    0.0846130000000000  -4.2715940007303654  -22.0958232072148064 -23.8260225805792700 0 0 0
267       19   7   -0.1079060000000000   23.8989100355721789 -15.6405690566488644 -3.2532587032388043  0 0 0
268       19   8   -0.0058890000000000   24.4977922054419679 -15.3458736585613238 -4.6193702831465497  0 0 0
269       19   5    0.0690980000000000   24.1666206970689146 -13.9266930272736644 -5.0808823777008252  0 0 0
270       19   6   -0.0790670000000000   24.7694398697735458 -13.6396305052386069 -6.4496174689666912  0 0 0
271       19   1   -0.1873450000000000   24.3737023107205566 -11.9843500860944836 -6.9667417265226934  0 0 0