
                                 *****************
                                 * O   R   C   A *
                                 *****************

           --- An Ab Initio, DFT and Semiempirical electronic structure package ---

                  #######################################################
                  #                        -***-                        #
                  #          Department of theory and spectroscopy      #
                  #               Directorship: Frank Neese             #
                  #        Max Planck Institute fuer Kohlenforschung    #
                  #                Kaiser Wilhelm Platz 1               #
                  #                 D-45470 Muelheim/Ruhr               #
                  #                      Germany                        #
                  #                                                     #
                  #                  All rights reserved                #
                  #                        -***-                        #
                  #######################################################


                         Program Version 4.1.2  - RELEASE  -


 With contributions from (in alphabetic order):
   Daniel Aravena         : Magnetic Properties
   Michael Atanasov       : Ab Initio Ligand Field Theory
   Alexander A. Auer      : GIAO ZORA
   Ute Becker             : Parallelization
   Giovanni Bistoni       : ED, Open-shell LED
   Martin Brehm           : Molecular dynamics
   Dmytro Bykov           : SCF Hessian
   Vijay G. Chilkuri      : MRCI spin determinant printing
   Dipayan Datta          : RHF DLPNO-CCSD density
   Achintya Kumar Dutta   : EOM-CC, STEOM-CC
   Dmitry Ganyushin       : Spin-Orbit,Spin-Spin,Magnetic field MRCI
   Miquel Garcia          : C-PCM Hessian
   Yang Guo               : DLPNO-NEVPT2, CIM, IAO-localization
   Andreas Hansen         : Spin unrestricted coupled pair/coupled cluster methods
   Benjamin Helmich-Paris : CASSCF linear response (MC-RPA)
   Lee Huntington         : MR-EOM, pCC
   Robert Izsak           : Overlap fitted RIJCOSX, COSX-SCS-MP3, EOM
   Christian Kollmar      : KDIIS, OOCD, Brueckner-CCSD(T), CCSD density
   Simone Kossmann        : Meta GGA functionals, TD-DFT gradient, OOMP2, MP2 Hessian
   Martin Krupicka        : AUTO-CI
   Lucas Lang             : DCDCAS
   Dagmar Lenk            : GEPOL surface, SMD
   Dimitrios Liakos       : Extrapolation schemes; parallel MDCI
   Dimitrios Manganas     : ROCIS; embedding schemes
   Dimitrios Pantazis     : SARC Basis sets
   Taras Petrenko         : DFT Hessian,TD-DFT gradient, ASA, ECA, R-Raman, ABS, FL, XAS/XES, NRVS
   Peter Pinski           : DLPNO-MP2, DLPNO-MP2 Gradient
   Christoph Reimann      : Effective Core Potentials
   Marius Retegan         : Local ZFS, SOC
   Christoph Riplinger    : Optimizer, TS searches, QM/MM, DLPNO-CCSD(T), (RO)-DLPNO pert. Triples
   Tobias Risthaus        : Range-separated hybrids, TD-DFT gradient, RPA, STAB
   Michael Roemelt        : Restricted open shell CIS
   Masaaki Saitow         : Open-shell DLPNO
   Barbara Sandhoefer     : DKH picture change effects
   Avijit Sen             : IP-ROCIS
   Kantharuban Sivalingam : CASSCF convergence, NEVPT2, FIC-MRCI
   Bernardo de Souza      : ESD, SOC TD-DFT
   Georgi Stoychev        : AutoAux, RI-MP2 NMR
   Willem Van den Heuvel  : Paramagnetic NMR
   Boris Wezisla          : Elementary symmetry handling
   Frank Wennmohs         : Technical directorship


 We gratefully acknowledge several colleagues who have allowed us to
 interface, adapt or use parts of their codes:
   Stefan Grimme, W. Hujo, H. Kruse,             : VdW corrections, initial TS optimization,
                  C. Bannwarth                     DFT functionals, gCP, sTDA/sTD-DF
   Ed Valeev                                     : LibInt (2-el integral package), F12 methods
   Garnet Chan, S. Sharma, J. Yang, R. Olivares  : DMRG
   Ulf Ekstrom                                   : XCFun DFT Library
   Mihaly Kallay                                 : mrcc  (arbitrary order and MRCC methods)
   Andreas Klamt, Michael Diedenhofen            : otool_cosmo (COSMO solvation model)
   Jiri Pittner, Ondrej Demel                    : Mk-CCSD
   Frank Weinhold                                : gennbo (NPA and NBO analysis)
   Christopher J. Cramer and Donald G. Truhlar   : smd solvation model
   Lars Goerigk                                  : TD-DFT with DH, B97 family of functionals
   V. Asgeirsson, H. Jonsson                     : NEB implementation
   FAccTs GmbH                                   : IRC, NEB, NEB-TS, Multilevel


 Your calculation uses the libint2 library for the computation of 2-el integrals
 For citations please refer to: http://libint.valeyev.net

 This ORCA versions uses:
   CBLAS   interface :  Fast vector & matrix operations
   LAPACKE interface :  Fast linear algebra routines
   SCALAPACK package :  Parallel linear algebra routines


Your calculation utilizes the atom-pairwise dispersion correction
with the zero-damping scheme (D30)
Cite in your paper:
S.Grimme, J.Antony, S.Ehrlich and H.Krieg, J.Chem.Phys., 132, (2010), 154104 
   

XCFun DFT library Copyright 2009-2010 Ulf Ekstrom and contributors.
See http://admol.org/xcfun for more information. This is free soft-
ware; see the source code for copying conditions. There is ABSOLUTELY
NO WARRANTY; not even for MERCHANTABILITY or FITNESS FOR A PARTICULAR
PURPOSE. For details see the documentation. Scientific users of this 
library should cite U. Ekstrom, L. Visscher, R. Bast, A. J. Thorvald-
sen and K. Ruud; J.Chem.Theor.Comp. 2010, DOI: 10.1021/ct100117s
XCFun Version 0.99 
----- Orbital basis set information -----
Your calculation utilizes the basis: def2-TZVP
   F. Weigend and R. Ahlrichs, Phys. Chem. Chem. Phys. 7, 3297 (2005).

================================================================================
                                        WARNINGS
                       Please study these warnings very carefully!
================================================================================


INFO   : the flag for use of LIBINT has been found!

Your calculation utilizes the atom-pairwise dispersion correction
with the zero-damping scheme (D30)
Cite in your paper:
S.Grimme, J.Antony, S.Ehrlich and H.Krieg, J.Chem.Phys., 132, (2010), 154104 
   

XCFun DFT library Copyright 2009-2010 Ulf Ekstrom and contributors.
See http://admol.org/xcfun for more information. This is free soft-
ware; see the source code for copying conditions. There is ABSOLUTELY
NO WARRANTY; not even for MERCHANTABILITY or FITNESS FOR A PARTICULAR
PURPOSE. For details see the documentation. Scientific users of this 
library should cite U. Ekstrom, L. Visscher, R. Bast, A. J. Thorvald-
sen and K. Ruud; J.Chem.Theor.Comp. 2010, DOI: 10.1021/ct100117s
XCFun Version 0.99 
----- Orbital basis set information -----
Your calculation utilizes the basis: def2-TZVP
   F. Weigend and R. Ahlrichs, Phys. Chem. Chem. Phys. 7, 3297 (2005).

================================================================================
                                        WARNINGS
                       Please study these warnings very carefully!
================================================================================


WARNING: MOInp is set but Guess=PModel. MOInp will be ignored!
         To read the initial guess from a file you must also specify
         'MORead' in the simple input or 'Guess MORead' in the %scf block


INFO   : the flag for use of LIBINT has been found!

Your calculation utilizes the atom-pairwise dispersion correction
with the zero-damping scheme (D30)
Cite in your paper:
S.Grimme, J.Antony, S.Ehrlich and H.Krieg, J.Chem.Phys., 132, (2010), 154104 
   

XCFun DFT library Copyright 2009-2010 Ulf Ekstrom and contributors.
See http://admol.org/xcfun for more information. This is free soft-
ware; see the source code for copying conditions. There is ABSOLUTELY
NO WARRANTY; not even for MERCHANTABILITY or FITNESS FOR A PARTICULAR
PURPOSE. For details see the documentation. Scientific users of this 
library should cite U. Ekstrom, L. Visscher, R. Bast, A. J. Thorvald-
sen and K. Ruud; J.Chem.Theor.Comp. 2010, DOI: 10.1021/ct100117s
XCFun Version 0.99 
----- Orbital basis set information -----
Your calculation utilizes the basis: def2-TZVP
   F. Weigend and R. Ahlrichs, Phys. Chem. Chem. Phys. 7, 3297 (2005).

================================================================================
                                        WARNINGS
                       Please study these warnings very carefully!
================================================================================


WARNING: MOInp is set but Guess=PModel. MOInp will be ignored!
         To read the initial guess from a file you must also specify
         'MORead' in the simple input or 'Guess MORead' in the %scf block


INFO   : the flag for use of LIBINT has been found!

================================================================================
                                       INPUT FILE
================================================================================
NAME = 20-138.in
|  1> #Run DFT-D3 single point of the dimer
|  2> ! wB97X-D3 def2-TZVP TIGHTSCF CHELPG PMODEL PAL8
|  3> 
|  4> %base "20-138_DFT_AB"
|  5> 
|  6> %scf
|  7> MaxIter 1000
|  8> end
|  9> 
| 10> * xyz 0 1
| 11>   C                      -4.905139            5.262568             -10.301868          
| 12>   O                      -4.333922            5.021783             -9.019390           
| 13>   H                      -4.942635            5.445550             -8.437080           
| 14>   H                      -4.087589            5.285542             -11.069867          
| 15>   H                      -5.760049            4.649201             -10.628340          
| 16>   H                      -5.338715            6.228068             -10.267397          
| 17>   C                      -1.391945            3.297520             -7.878447           
| 18>   O                      -1.548555            4.014057             -9.007819           
| 19>   H                      -2.491489            4.133702             -9.258821           
| 20>   H                      -1.953114            3.750853             -7.007505           
| 21>   H                      -1.819787            2.295117             -8.033450           
| 22>   H                      -0.295701            3.124531             -7.632486           
| 23> *
| 24> 
| 25> #Run DFT-D3 single point of the molecule with dimer basis set
| 26> $new_job
| 27> %base "20-138_DFT_A"
| 28> ! wB97X-D3 def2-TZVP TIGHTSCF CHELPG PMODEL
| 29> 
| 30> %scf
| 31> MaxIter 1000
| 32> end
| 33> 
| 34> * xyz 0 1
| 35>   C                      -4.905139            5.262568             -10.301868          
| 36>   O                      -4.333922            5.021783             -9.019390           
| 37>   H                      -4.942635            5.445550             -8.437080           
| 38>   H                      -4.087589            5.285542             -11.069867          
| 39>   H                      -5.760049            4.649201             -10.628340          
| 40>   H                      -5.338715            6.228068             -10.267397          
| 41>   C                    : -1.391945            3.297520             -7.878447           
| 42>   O                    : -1.548555            4.014057             -9.007819           
| 43>   H                    : -2.491489            4.133702             -9.258821           
| 44>   H                    : -1.953114            3.750853             -7.007505           
| 45>   H                    : -1.819787            2.295117             -8.033450           
| 46>   H                    : -0.295701            3.124531             -7.632486           
| 47> *
| 48> 
| 49> #Run DFT-D3 single point of the particle with dimer basis set
| 50> $new_job
| 51> %base "20-138_DFT_B"
| 52> ! wB97X-D3 def2-TZVP TIGHTSCF CHELPG PMODEL
| 53> 
| 54> %scf
| 55> MaxIter 1000
| 56> end
| 57> 
| 58> * xyz 0 1
| 59>   C                    : -4.905139            5.262568             -10.301868          
| 60>   O                    : -4.333922            5.021783             -9.019390           
| 61>   H                    : -4.942635            5.445550             -8.437080           
| 62>   H                    : -4.087589            5.285542             -11.069867          
| 63>   H                    : -5.760049            4.649201             -10.628340          
| 64>   H                    : -5.338715            6.228068             -10.267397          
| 65>   C                      -1.391945            3.297520             -7.878447           
| 66>   O                      -1.548555            4.014057             -9.007819           
| 67>   H                      -2.491489            4.133702             -9.258821           
| 68>   H                      -1.953114            3.750853             -7.007505           
| 69>   H                      -1.819787            2.295117             -8.033450           
| 70>   H                      -0.295701            3.124531             -7.632486           
| 71> *
| 72> 
| 73>                          ****END OF INPUT****
================================================================================


                 $$$$$$$$$$$$$$$$$$$$$$$$$$$$$$$$$$$$$$$$$$$$$$ 
                 $ THERE ARE  3 JOBS TO BE PROCESSED THIS RUN $
                 $$$$$$$$$$$$$$$$$$$$$$$$$$$$$$$$$$$$$$$$$$$$$$ 




                 $$$$$$$$$$$$$$$$  JOB NUMBER  1 $$$$$$$$$$$$$$


                       ****************************
                       * Single Point Calculation *
                       ****************************

---------------------------------
CARTESIAN COORDINATES (ANGSTROEM)
---------------------------------
  C     -4.905139    5.262568  -10.301868
  O     -4.333922    5.021783   -9.019390
  H     -4.942635    5.445550   -8.437080
  H     -4.087589    5.285542  -11.069867
  H     -5.760049    4.649201  -10.628340
  H     -5.338715    6.228068  -10.267397
  C     -1.391945    3.297520   -7.878447
  O     -1.548555    4.014057   -9.007819
  H     -2.491489    4.133702   -9.258821
  H     -1.953114    3.750853   -7.007505
  H     -1.819787    2.295117   -8.033450
  H     -0.295701    3.124531   -7.632486

----------------------------
CARTESIAN COORDINATES (A.U.)
----------------------------
  NO LB      ZA    FRAG     MASS         X           Y           Z
   0 C     6.0000    0    12.011   -9.269369    9.944812  -19.467709
   1 O     8.0000    0    15.999   -8.189926    9.489795  -17.044177
   2 H     1.0000    0     1.008   -9.340227   10.290598  -15.943771
   3 H     1.0000    0     1.008   -7.724424    9.988227  -20.919017
   4 H     1.0000    0     1.008  -10.884915    8.785717  -20.084652
   5 H     1.0000    0     1.008  -10.088709   11.769343  -19.402568
   6 C     6.0000    0    12.011   -2.630395    6.231410  -14.888107
   7 O     8.0000    0    15.999   -2.926345    7.585468  -17.022311
   8 H     1.0000    0     1.008   -4.708232    7.811565  -17.496636
   9 H     1.0000    0     1.008   -3.690851    7.088085  -13.242265
  10 H     1.0000    0     1.008   -3.438899    4.337143  -15.181020
  11 H     1.0000    0     1.008   -0.558794    5.904508  -14.423308

--------------------------------
INTERNAL COORDINATES (ANGSTROEM)
--------------------------------
 C      0   0   0     0.000000000000     0.00000000     0.00000000
 O      1   0   0     1.424435361046     0.00000000     0.00000000
 H      2   1   0     0.942971326583   102.77688254     0.00000000
 H      1   2   3     1.121935056577   109.12050401   151.72124437
 H      1   2   3     1.101668803032   118.93958290   281.81481750
 H      1   2   3     1.058946007886   106.79841280    35.71251177
 C      2   1   3     3.595839608624   134.01321199   179.70957806
 O      7   2   1     1.346637693982    51.94627017    35.09134033
 H      8   7   2     0.983077544441   112.98159264   340.52512326
 H      7   2   1     1.130911766149    69.27765201   178.71516551
 H      7   2   1     1.100857157574    94.24269378   284.54370443
 H      7   2   1     1.136737839248   158.53535812    81.39604252

---------------------------
INTERNAL COORDINATES (A.U.)
---------------------------
 C      0   0   0     0.000000000000     0.00000000     0.00000000
 O      1   0   0     2.691792727850     0.00000000     0.00000000
 H      2   1   0     1.781957559383   102.77688254     0.00000000
 H      1   2   3     2.120149996976   109.12050401   151.72124437
 H      1   2   3     2.081852328014   118.93958290   281.81481750
 H      1   2   3     2.001117945513   106.79841280    35.71251177
 C      2   1   3     6.795152081805   134.01321199   179.70957806
 O      7   2   1     2.544776443241    51.94627017    35.09134033
 H      8   7   2     1.857747327402   112.98159264   340.52512326
 H      7   2   1     2.137113519651    69.27765201   178.71516551
 H      7   2   1     2.080318540382    94.24269378   284.54370443
 H      7   2   1     2.148123202244   158.53535812    81.39604252

---------------------
BASIS SET INFORMATION
---------------------
There are 3 groups of distinct atoms

 Group   1 Type C   : 11s6p2d1f contracted to 5s3p2d1f pattern {62111/411/11/1}
 Group   2 Type O   : 11s6p2d1f contracted to 5s3p2d1f pattern {62111/411/11/1}
 Group   3 Type H   : 5s1p contracted to 3s1p pattern {311/1}

Atom   0C    basis set group =>   1
Atom   1O    basis set group =>   2
Atom   2H    basis set group =>   3
Atom   3H    basis set group =>   3
Atom   4H    basis set group =>   3
Atom   5H    basis set group =>   3
Atom   6C    basis set group =>   1
Atom   7O    basis set group =>   2
Atom   8H    basis set group =>   3
Atom   9H    basis set group =>   3
Atom  10H    basis set group =>   3
Atom  11H    basis set group =>   3


           ************************************************************
           *        Program running with 8 parallel MPI-processes     *
           *              working on a common directory               *
           ************************************************************
------------------------------------------------------------------------------
                           ORCA GTO INTEGRAL CALCULATION
------------------------------------------------------------------------------

                         BASIS SET STATISTICS AND STARTUP INFO

 # of primitive gaussian shells          ...  128
 # of primitive gaussian functions       ...  248
 # of contracted shells                  ...   76
 # of contracted basis functions         ...  172
 Highest angular momentum                ...    3
 Maximum contraction depth               ...    6
 Integral package used                   ... LIBINT
 Integral threshhold            Thresh   ...  2.500e-11
 Primitive cut-off              TCut     ...  2.500e-12


------------------------------ INTEGRAL EVALUATION ----------------------------


 * One electron integrals 
 Pre-screening matrix                    ... done
 Shell pair data                         ... done (   0.001 sec)



           ************************************************************
           *        Program running with 8 parallel MPI-processes     *
           *              working on a common directory               *
           ************************************************************
-------------------------------------------------------------------------------
                                 ORCA SCF
-------------------------------------------------------------------------------

------------
SCF SETTINGS
------------
Hamiltonian:
 Density Functional     Method          .... DFT(GTOs)
 Exchange Functional    Exchange        .... WB97X-D3
 Correlation Functional Correlation     .... WB97X-D3
 Gradients option       PostSCFGGA      .... off
 Hybrid DFT is turned on
   Fraction HF Exchange ScalHFX         ....  0.195728
   Scaling of DF-GGA-X  ScalDFX         ....  0.000000
   Scaling of DF-GGA-C  ScalDFC         ....  1.000000
   Scaling of DF-LDA-C  ScalLDAC        ....  1.000000
   Perturbative correction              ....  0.000000
   Density functional embedding theory  .... OFF
 Long-range corrected/Screened/Range-Separated Hybrid DFT is turned on
   Amount of maximum screened exact exchange              ....  0.804272
   Range separation parameter mu (erf(mu*r12)/r12)        ....  0.250000


General Settings:
 Integral files         IntName         .... 20-138_DFT_AB
 Hartree-Fock type      HFTyp           .... RHF
 Total Charge           Charge          ....    0
 Multiplicity           Mult            ....    1
 Number of Electrons    NEL             ....   36
 Basis Dimension        Dim             ....  172
 Nuclear Repulsion      ENuc            ....    127.6682646613 Eh

Convergence Acceleration:
 DIIS                   CNVDIIS         .... on
   Start iteration      DIISMaxIt       ....    12
   Startup error        DIISStart       ....  0.200000
   # of expansion vecs  DIISMaxEq       ....     5
   Bias factor          DIISBfac        ....   1.050
   Max. coefficient     DIISMaxC        ....  10.000
 Newton-Raphson         CNVNR           .... off
 SOSCF                  CNVSOSCF        .... on
   Start iteration      SOSCFMaxIt      ....   150
   Startup grad/error   SOSCFStart      ....  0.003300
 Level Shifting         CNVShift        .... on
   Level shift para.    LevelShift      ....    0.2500
   Turn off err/grad.   ShiftErr        ....    0.0010
 Zerner damping         CNVZerner       .... off
 Static damping         CNVDamp         .... on
   Fraction old density DampFac         ....    0.7000
   Max. Damping (<1)    DampMax         ....    0.9800
   Min. Damping (>=0)   DampMin         ....    0.0000
   Turn off err/grad.   DampErr         ....    0.1000
 Fernandez-Rico         CNVRico         .... off

SCF Procedure:
 Maximum # iterations   MaxIter         ....  1000
 SCF integral mode      SCFMode         .... Direct
   Integral package                     .... LIBINT
 Reset frequency        DirectResetFreq ....    20
 Integral Threshold     Thresh          ....  2.500e-11 Eh
 Primitive CutOff       TCut            ....  2.500e-12 Eh

Convergence Tolerance:
 Convergence Check Mode ConvCheckMode   .... Total+1el-Energy
 Convergence forced     ConvForced      .... 0
 Energy Change          TolE            ....  1.000e-08 Eh
 1-El. energy change                    ....  1.000e-05 Eh
 Orbital Gradient       TolG            ....  1.000e-05
 Orbital Rotation angle TolX            ....  1.000e-05
 DIIS Error             TolErr          ....  5.000e-07


Diagonalization of the overlap matrix:
Smallest eigenvalue                        ... 1.612e-03
Time for diagonalization                   ...    0.004 sec
Threshold for overlap eigenvalues          ... 1.000e-08
Number of eigenvalues below threshold      ... 0
Time for construction of square roots      ...    0.010 sec
Total time needed                          ...    0.015 sec

-------------------
DFT GRID GENERATION
-------------------

General Integration Accuracy     IntAcc      ...  4.340
Radial Grid Type                 RadialGrid  ... Gauss-Chebyshev
Angular Grid (max. acc.)         AngularGrid ... Lebedev-110
Angular grid pruning method      GridPruning ... 3 (G Style)
Weight generation scheme         WeightScheme... Becke
Basis function cutoff            BFCut       ...    1.0000e-11
Integration weight cutoff        WCut        ...    1.0000e-14
Grids for H and He will be reduced by one unit

# of grid points (after initial pruning)     ...  13096 (   0.0 sec)
# of grid points (after weights+screening)   ...  12524 (   0.0 sec)
nearest neighbour list constructed           ...    0.0 sec
Grid point re-assignment to atoms done       ...    0.0 sec
Grid point division into batches done        ...    0.0 sec
Reduced shell lists constructed in    0.0 sec

Total number of grid points                  ...    12524
Total number of batches                      ...      200
Average number of points per batch           ...       62
Average number of grid points per atom       ...     1044
Average number of shells per batch           ...    57.62 (75.81%)
Average number of basis functions per batch  ...   130.38 (75.81%)
Average number of large shells per batch     ...    47.81 (82.98%)
Average number of large basis fcns per batch ...   105.81 (81.15%)
Maximum spatial batch extension              ...   5.02,  6.51,  4.08 au
Average spatial batch extension              ...   0.22,  0.24,  0.21 au

Time for grid setup =    0.044 sec

------------------------------
INITIAL GUESS: MODEL POTENTIAL
------------------------------
Loading Hartree-Fock densities                     ... done
Calculating cut-offs                               ... done
Setting up the integral package                    ... done
Initializing the effective Hamiltonian             ... done
Starting the Coulomb interaction                   ... done (   0.0 sec)
Reading the grid                                   ... done
Mapping shells                                     ... done
Starting the XC term evaluation                    ... done (   0.0 sec)
  promolecular density results
     # of electrons  =     35.994752046
     EX              =    -28.871780559
     EC              =     -1.156441034
     EX+EC           =    -30.028221593
Transforming the Hamiltonian                       ... done (   0.0 sec)
Diagonalizing the Hamiltonian                      ... done (   0.0 sec)
Back transforming the eigenvectors                 ... done (   0.0 sec)
Now organizing SCF variables                       ... done
                      ------------------
                      INITIAL GUESS DONE (   0.2 sec)
                      ------------------
--------------
SCF ITERATIONS
--------------
ITER       Energy         Delta-E        Max-DP      RMS-DP      [F,P]     Damp
               ***  Starting incremental Fock matrix formation  ***
  0   -231.2987715226   0.000000000000 0.03677033  0.00105964  0.2560640 0.7000
  1   -231.3702551906  -0.071483668041 0.02337277  0.00075714  0.1281739 0.7000
                               ***Turning on DIIS***
  2   -231.4032489660  -0.032993775393 0.03657273  0.00137444  0.0501296 0.0000
  3   -231.4566572034  -0.053408237404 0.01749728  0.00049418  0.0612847 0.0000
  4   -231.4654908139  -0.008833610441 0.00407735  0.00009727  0.0061650 0.0000
                      *** Initiating the SOSCF procedure ***
                           *** Shutting down DIIS ***
                      *** Re-Reading the Fockian *** 
                      *** Removing any level shift *** 
ITER      Energy       Delta-E        Grad      Rot      Max-DP    RMS-DP
  5   -231.46566630  -0.0001754847  0.000413  0.000413  0.000754  0.000035
               *** Restarting incremental Fock matrix formation ***
  6   -231.46568335  -0.0000170490  0.000152  0.000238  0.000497  0.000021
  7   -231.46568502  -0.0000016735  0.000047  0.000146  0.000256  0.000010
  8   -231.46568515  -0.0000001338  0.000028  0.000020  0.000049  0.000001
  9   -231.46568519  -0.0000000337  0.000010  0.000009  0.000021  0.000001
 10   -231.46568519  -0.0000000029  0.000003  0.000005  0.000007  0.000000
                  ***Gradient check signals convergence***
              ***Rediagonalizing the Fockian in SOSCF/NRSCF***

               *****************************************************
               *                     SUCCESS                       *
               *           SCF CONVERGED AFTER  11 CYCLES          *
               *****************************************************

Setting up the final grid:

General Integration Accuracy     IntAcc      ...  4.670
Radial Grid Type                 RadialGrid  ... Gauss-Chebyshev
Angular Grid (max. acc.)         AngularGrid ... Lebedev-302
Angular grid pruning method      GridPruning ... 3 (G Style)
Weight generation scheme         WeightScheme... Becke
Basis function cutoff            BFCut       ...    1.0000e-11
Integration weight cutoff        WCut        ...    1.0000e-14
Grids for H and He will be reduced by one unit

# of grid points (after initial pruning)     ...  52000 (   0.0 sec)
# of grid points (after weights+screening)   ...  49241 (   0.0 sec)
nearest neighbour list constructed           ...    0.0 sec
Grid point re-assignment to atoms done       ...    0.0 sec
Grid point division into batches done        ...    0.2 sec
Reduced shell lists constructed in    0.2 sec

Total number of grid points                  ...    49241
Total number of batches                      ...      774
Average number of points per batch           ...       63
Average number of grid points per atom       ...     4103
Average number of shells per batch           ...    57.05 (75.07%)
Average number of basis functions per batch  ...   127.93 (74.38%)
Average number of large shells per batch     ...    47.10 (82.56%)
Average number of large basis fcns per batch ...   104.61 (81.77%)
Maximum spatial batch extension              ...   3.74,  3.92,  3.81 au
Average spatial batch extension              ...   0.14,  0.15,  0.14 au

Final grid set up in    0.2 sec
Final integration                            ... done (   0.1 sec)
Change in XC energy                          ...    -0.000182450
Integrated number of electrons               ...    35.999991750
Previous integrated no of electrons          ...    35.995993449

----------------
TOTAL SCF ENERGY
----------------

Total Energy       :         -231.46586764 Eh           -6298.50647 eV

Components:
Nuclear Repulsion  :          127.66826466 Eh            3474.03010 eV
Electronic Energy  :         -359.13413230 Eh           -9772.53657 eV
One Electron Energy:         -568.14503122 Eh          -15460.01227 eV
Two Electron Energy:          209.01089892 Eh            5687.47571 eV

Virial components:
Potential Energy   :         -461.96599877 Eh          -12570.73391 eV
Kinetic Energy     :          230.50013113 Eh            6272.22744 eV
Virial Ratio       :            2.00418974


DFT components:
N(Alpha)           :       17.999995875247 electrons
N(Beta)            :       17.999995875247 electrons
N(Total)           :       35.999991750493 electrons
E(XC)              :      -21.311512842467 Eh       
DFET-embed. en.    :        0.000000000000 Eh       

---------------
SCF CONVERGENCE
---------------

  Last Energy change         ...   -7.0924e-10  Tolerance :   1.0000e-08
  Last MAX-Density change    ...    2.5128e-06  Tolerance :   1.0000e-07
  Last RMS-Density change    ...    8.9639e-08  Tolerance :   5.0000e-09
  Last Orbital Gradient      ...    1.1558e-06  Tolerance :   1.0000e-05
  Last Orbital Rotation      ...    2.8735e-06  Tolerance :   1.0000e-05

             **** THE GBW FILE WAS UPDATED (20-138_DFT_AB.gbw) ****
             **** DENSITY FILE WAS UPDATED (20-138_DFT_AB.scfp.tmp) ****
             **** ENERGY FILE WAS UPDATED (20-138_DFT_AB.en.tmp) ****
----------------
ORBITAL ENERGIES
----------------

  NO   OCC          E(Eh)            E(eV) 
   0   2.0000     -19.255104      -523.9580 
   1   2.0000     -19.202949      -522.5388 
   2   2.0000     -10.329276      -281.0739 
   3   2.0000     -10.298542      -280.2376 
   4   2.0000      -1.164302       -31.6823 
   5   2.0000      -1.126814       -30.6622 
   6   2.0000      -0.811963       -22.0946 
   7   2.0000      -0.766101       -20.8467 
   8   2.0000      -0.641802       -17.4643 
   9   2.0000      -0.597820       -16.2675 
  10   2.0000      -0.553723       -15.0676 
  11   2.0000      -0.542343       -14.7579 
  12   2.0000      -0.525169       -14.2906 
  13   2.0000      -0.514712       -14.0060 
  14   2.0000      -0.464715       -12.6455 
  15   2.0000      -0.397208       -10.8086 
  16   2.0000      -0.396487       -10.7890 
  17   2.0000      -0.342395        -9.3170 
  18   0.0000       0.095928         2.6103 
  19   0.0000       0.138569         3.7707 
  20   0.0000       0.156511         4.2589 
  21   0.0000       0.168358         4.5813 
  22   0.0000       0.196366         5.3434 
  23   0.0000       0.205160         5.5827 
  24   0.0000       0.213332         5.8051 
  25   0.0000       0.220158         5.9908 
  26   0.0000       0.227779         6.1982 
  27   0.0000       0.267870         7.2891 
  28   0.0000       0.303611         8.2617 
  29   0.0000       0.315204         8.5771 
  30   0.0000       0.323204         8.7948 
  31   0.0000       0.326715         8.8904 
  32   0.0000       0.404177        10.9982 
  33   0.0000       0.425123        11.5682 
  34   0.0000       0.449919        12.2429 
  35   0.0000       0.464821        12.6484 
  36   0.0000       0.490074        13.3356 
  37   0.0000       0.509045        13.8518 
  38   0.0000       0.510189        13.8829 
  39   0.0000       0.532546        14.4913 
  40   0.0000       0.547199        14.8900 
  41   0.0000       0.564885        15.3713 
  42   0.0000       0.567879        15.4528 
  43   0.0000       0.584941        15.9171 
  44   0.0000       0.599325        16.3084 
  45   0.0000       0.610206        16.6046 
  46   0.0000       0.643058        17.4985 
  47   0.0000       0.701304        19.0835 
  48   0.0000       0.710480        19.3332 
  49   0.0000       0.764629        20.8066 
  50   0.0000       0.786789        21.4096 
  51   0.0000       0.812822        22.1180 
  52   0.0000       0.848657        23.0931 
  53   0.0000       0.854550        23.2535 
  54   0.0000       0.916596        24.9419 
  55   0.0000       0.935916        25.4676 
  56   0.0000       0.992849        27.0168 
  57   0.0000       1.018388        27.7117 
  58   0.0000       1.038319        28.2541 
  59   0.0000       1.056468        28.7480 
  60   0.0000       1.107958        30.1491 
  61   0.0000       1.161487        31.6057 
  62   0.0000       1.365373        37.1537 
  63   0.0000       1.434789        39.0426 
  64   0.0000       1.472446        40.0673 
  65   0.0000       1.527170        41.5564 
  66   0.0000       1.547385        42.1065 
  67   0.0000       1.571601        42.7654 
  68   0.0000       1.593095        43.3503 
  69   0.0000       1.610566        43.8257 
  70   0.0000       1.621204        44.1152 
  71   0.0000       1.634319        44.4721 
  72   0.0000       1.637973        44.5715 
  73   0.0000       1.658381        45.1268 
  74   0.0000       1.682548        45.7845 
  75   0.0000       1.685871        45.8749 
  76   0.0000       1.731022        47.1035 
  77   0.0000       1.743261        47.4365 
  78   0.0000       1.775555        48.3153 
  79   0.0000       1.799136        48.9570 
  80   0.0000       1.965663        53.4884 
  81   0.0000       1.976802        53.7915 
  82   0.0000       1.994544        54.2743 
  83   0.0000       2.014115        54.8068 
  84   0.0000       2.066954        56.2447 
  85   0.0000       2.076825        56.5133 
  86   0.0000       2.104667        57.2709 
  87   0.0000       2.144385        58.3517 
  88   0.0000       2.154850        58.6365 
  89   0.0000       2.183909        59.4272 
  90   0.0000       2.222810        60.4857 
  91   0.0000       2.278736        62.0076 
  92   0.0000       2.323121        63.2153 
  93   0.0000       2.344320        63.7922 
  94   0.0000       2.352248        64.0079 
  95   0.0000       2.402281        65.3694 
  96   0.0000       2.419471        65.8371 
  97   0.0000       2.435395        66.2705 
  98   0.0000       2.463906        67.0463 
  99   0.0000       2.486609        67.6641 
 100   0.0000       2.506975        68.2182 
 101   0.0000       2.521437        68.6118 
 102   0.0000       2.586180        70.3735 
 103   0.0000       2.612093        71.0787 
 104   0.0000       2.640978        71.8647 
 105   0.0000       2.650950        72.1360 
 106   0.0000       2.680172        72.9312 
 107   0.0000       2.723616        74.1134 
 108   0.0000       2.819151        76.7130 
 109   0.0000       2.860245        77.8312 
 110   0.0000       2.881765        78.4168 
 111   0.0000       2.925690        79.6121 
 112   0.0000       2.936606        79.9091 
 113   0.0000       2.973180        80.9043 
 114   0.0000       3.012010        81.9610 
 115   0.0000       3.059380        83.2500 
 116   0.0000       3.110064        84.6292 
 117   0.0000       3.136742        85.3551 
 118   0.0000       3.188297        86.7580 
 119   0.0000       3.202182        87.1358 
 120   0.0000       3.262572        88.7791 
 121   0.0000       3.302130        89.8555 
 122   0.0000       3.369150        91.6792 
 123   0.0000       3.382938        92.0544 
 124   0.0000       3.440970        93.6336 
 125   0.0000       3.492513        95.0361 
 126   0.0000       3.505029        95.3767 
 127   0.0000       3.532490        96.1239 
 128   0.0000       3.572456        97.2115 
 129   0.0000       3.618576        98.4665 
 130   0.0000       3.659967        99.5928 
 131   0.0000       3.672642        99.9377 
 132   0.0000       3.701542       100.7241 
 133   0.0000       3.730627       101.5155 
 134   0.0000       4.006023       109.0094 
 135   0.0000       4.037187       109.8574 
 136   0.0000       4.166519       113.3768 
 137   0.0000       4.178323       113.6980 
 138   0.0000       4.276087       116.3582 
 139   0.0000       4.372787       118.9896 
 140   0.0000       4.381599       119.2294 
 141   0.0000       4.395066       119.5958 
 142   0.0000       4.541461       123.5794 
 143   0.0000       4.576227       124.5255 
 144   0.0000       5.344955       145.4436 
 145   0.0000       5.379090       146.3725 
 146   0.0000       5.445824       148.1884 
 147   0.0000       5.455340       148.4474 
 148   0.0000       5.528103       150.4273 
 149   0.0000       5.617858       152.8697 
 150   0.0000       5.742931       156.2731 
 151   0.0000       5.788791       157.5210 
 152   0.0000       5.944259       161.7515 
 153   0.0000       5.966016       162.3435 
 154   0.0000       5.984222       162.8390 
 155   0.0000       6.077378       165.3739 
 156   0.0000       6.339130       172.4965 
 157   0.0000       6.396309       174.0524 
 158   0.0000       6.515435       177.2940 
 159   0.0000       6.568194       178.7296 
 160   0.0000       6.754427       183.7973 
 161   0.0000       6.762062       184.0051 
 162   0.0000       6.803163       185.1235 
 163   0.0000       6.887588       187.4208 
 164   0.0000       7.019628       191.0138 
 165   0.0000       7.090666       192.9468 
 166   0.0000       7.191524       195.6913 
 167   0.0000       7.287239       198.2959 
 168   0.0000      22.356237       608.3441 
 169   0.0000      22.494681       612.1114 
 170   0.0000      43.651727      1187.8239 
 171   0.0000      43.795826      1191.7450 

                    ********************************
                    * MULLIKEN POPULATION ANALYSIS *
                    ********************************

-----------------------
MULLIKEN ATOMIC CHARGES
-----------------------
   0 C :   -0.180031
   1 O :   -0.484357
   2 H :    0.321857
   3 H :    0.130839
   4 H :    0.110785
   5 H :    0.115039
   6 C :   -0.125778
   7 O :   -0.475692
   8 H :    0.327825
   9 H :    0.074579
  10 H :    0.081091
  11 H :    0.103843
Sum of atomic charges:   -0.0000000

--------------------------------
MULLIKEN REDUCED ORBITAL CHARGES
--------------------------------
  0 C s       :     3.226672  s :     3.226672
      pz      :     0.779023  p :     2.851522
      px      :     1.015411
      py      :     1.057089
      dz2     :     0.021213  d :     0.094379
      dxz     :     0.030242
      dyz     :     0.023876
      dx2y2   :     0.007496
      dxy     :     0.011551
      f0      :     0.001879  f :     0.007457
      f+1     :     0.001623
      f-1     :     0.001560
      f+2     :     0.001078
      f-2     :     0.000780
      f+3     :     0.000351
      f-3     :     0.000187
  1 O s       :     3.798136  s :     3.798136
      pz      :     1.253072  p :     4.655003
      px      :     1.601424
      py      :     1.800506
      dz2     :     0.004602  d :     0.029576
      dxz     :     0.011805
      dyz     :     0.005611
      dx2y2   :     0.002948
      dxy     :     0.004610
      f0      :     0.000338  f :     0.001642
      f+1     :     0.000241
      f-1     :     0.000171
      f+2     :     0.000140
      f-2     :     0.000467
      f+3     :     0.000079
      f-3     :     0.000205
  2 H s       :     0.628185  s :     0.628185
      pz      :     0.014765  p :     0.049958
      px      :     0.017100
      py      :     0.018092
  3 H s       :     0.849557  s :     0.849557
      pz      :     0.007505  p :     0.019603
      px      :     0.008064
      py      :     0.004034
  4 H s       :     0.869412  s :     0.869412
      pz      :     0.003587  p :     0.019803
      px      :     0.009382
      py      :     0.006834
  5 H s       :     0.864250  s :     0.864250
      pz      :     0.003467  p :     0.020712
      px      :     0.006066
      py      :     0.011179
  6 C s       :     3.211950  s :     3.211950
      pz      :     0.795598  p :     2.794324
      px      :     1.062718
      py      :     0.936008
      dz2     :     0.036161  d :     0.110460
      dxz     :     0.026788
      dyz     :     0.016549
      dx2y2   :     0.018712
      dxy     :     0.012249
      f0      :     0.002465  f :     0.009043
      f+1     :     0.001103
      f-1     :     0.001837
      f+2     :     0.001540
      f-2     :     0.001351
      f+3     :     0.000578
      f-3     :     0.000171
  7 O s       :     3.770996  s :     3.770996
      pz      :     1.488425  p :     4.672269
      px      :     1.429324
      py      :     1.754520
      dz2     :     0.008457  d :     0.030592
      dxz     :     0.004455
      dyz     :     0.006988
      dx2y2   :     0.008505
      dxy     :     0.002186
      f0      :     0.000278  f :     0.001836
      f+1     :     0.000198
      f-1     :     0.000455
      f+2     :     0.000291
      f-2     :     0.000237
      f+3     :     0.000292
      f-3     :     0.000083
  8 H s       :     0.624608  s :     0.624608
      pz      :     0.011653  p :     0.047566
      px      :     0.021653
      py      :     0.014261
  9 H s       :     0.907086  s :     0.907086
      pz      :     0.008273  p :     0.018335
      px      :     0.005559
      py      :     0.004503
 10 H s       :     0.899493  s :     0.899493
      pz      :     0.003341  p :     0.019416
      px      :     0.005099
      py      :     0.010976
 11 H s       :     0.877563  s :     0.877563
      pz      :     0.002984  p :     0.018594
      px      :     0.011911
      py      :     0.003698


                     *******************************
                     * LOEWDIN POPULATION ANALYSIS *
                     *******************************

----------------------
LOEWDIN ATOMIC CHARGES
----------------------
   0 C :   -0.379247
   1 O :   -0.072298
   2 H :    0.166202
   3 H :    0.117465
   4 H :    0.099446
   5 H :    0.093254
   6 C :   -0.453153
   7 O :   -0.042725
   8 H :    0.179808
   9 H :    0.091916
  10 H :    0.087710
  11 H :    0.111621

-------------------------------
LOEWDIN REDUCED ORBITAL CHARGES
-------------------------------
  0 C s       :     2.862618  s :     2.862618
      pz      :     0.884879  p :     3.058913
      px      :     1.065542
      py      :     1.108492
      dz2     :     0.091991  d :     0.403090
      dxz     :     0.137538
      dyz     :     0.080486
      dx2y2   :     0.033690
      dxy     :     0.059385
      f0      :     0.011584  f :     0.054626
      f+1     :     0.011722
      f-1     :     0.013648
      f+2     :     0.008526
      f-2     :     0.004801
      f+3     :     0.002329
      f-3     :     0.002015
  1 O s       :     3.366641  s :     3.366641
      pz      :     1.308276  p :     4.631607
      px      :     1.595186
      py      :     1.728146
      dz2     :     0.015866  d :     0.069295
      dxz     :     0.026542
      dyz     :     0.016603
      dx2y2   :     0.003419
      dxy     :     0.006866
      f0      :     0.001202  f :     0.004755
      f+1     :     0.000815
      f-1     :     0.000577
      f+2     :     0.000488
      f-2     :     0.001363
      f+3     :     0.000063
      f-3     :     0.000248
  2 H s       :     0.668477  s :     0.668477
      pz      :     0.044586  p :     0.165321
      px      :     0.064220
      py      :     0.056515
  3 H s       :     0.826681  s :     0.826681
      pz      :     0.020039  p :     0.055854
      px      :     0.023947
      py      :     0.011868
  4 H s       :     0.840332  s :     0.840332
      pz      :     0.011547  p :     0.060222
      px      :     0.027840
      py      :     0.020835
  5 H s       :     0.839907  s :     0.839907
      pz      :     0.011949  p :     0.066839
      px      :     0.018934
      py      :     0.035956
  6 C s       :     2.864971  s :     2.864971
      pz      :     0.938284  p :     3.047778
      px      :     1.087486
      py      :     1.022007
      dz2     :     0.152953  d :     0.470626
      dxz     :     0.089625
      dyz     :     0.099255
      dx2y2   :     0.084832
      dxy     :     0.043961
      f0      :     0.017901  f :     0.069778
      f+1     :     0.009942
      f-1     :     0.014215
      f+2     :     0.009933
      f-2     :     0.011297
      f+3     :     0.004324
      f-3     :     0.002167
  7 O s       :     3.325893  s :     3.325893
      pz      :     1.527656  p :     4.630971
      px      :     1.418283
      py      :     1.685032
      dz2     :     0.022770  d :     0.080509
      dxz     :     0.016430
      dyz     :     0.017532
      dx2y2   :     0.017512
      dxy     :     0.006265
      f0      :     0.001150  f :     0.005351
      f+1     :     0.000837
      f-1     :     0.001059
      f+2     :     0.000752
      f-2     :     0.000721
      f+3     :     0.000678
      f-3     :     0.000154
  8 H s       :     0.665608  s :     0.665608
      pz      :     0.032018  p :     0.154584
      px      :     0.083750
      py      :     0.038816
  9 H s       :     0.854176  s :     0.854176
      pz      :     0.023483  p :     0.053908
      px      :     0.016690
      py      :     0.013734
 10 H s       :     0.853826  s :     0.853826
      pz      :     0.010357  p :     0.058464
      px      :     0.016219
      py      :     0.031888
 11 H s       :     0.836248  s :     0.836248
      pz      :     0.008549  p :     0.052131
      px      :     0.033298
      py      :     0.010283


                      *****************************
                      * MAYER POPULATION ANALYSIS *
                      *****************************

  NA   - Mulliken gross atomic population
  ZA   - Total nuclear charge
  QA   - Mulliken gross atomic charge
  VA   - Mayer's total valence
  BVA  - Mayer's bonded valence
  FA   - Mayer's free valence

  ATOM       NA         ZA         QA         VA         BVA        FA
  0 C      6.1800     6.0000    -0.1800     3.9037     3.9037     0.0000
  1 O      8.4844     8.0000    -0.4844     1.9005     1.9005    -0.0000
  2 H      0.6781     1.0000     0.3219     0.9126     0.9126    -0.0000
  3 H      0.8692     1.0000     0.1308     0.9640     0.9640     0.0000
  4 H      0.8892     1.0000     0.1108     0.9497     0.9497     0.0000
  5 H      0.8850     1.0000     0.1150     0.9624     0.9624    -0.0000
  6 C      6.1258     6.0000    -0.1258     3.9613     3.9613    -0.0000
  7 O      8.4757     8.0000    -0.4757     1.8741     1.8741    -0.0000
  8 H      0.6722     1.0000     0.3278     0.9194     0.9194    -0.0000
  9 H      0.9254     1.0000     0.0746     0.9608     0.9608    -0.0000
 10 H      0.9189     1.0000     0.0811     0.9608     0.9608    -0.0000
 11 H      0.8962     1.0000     0.1038     0.9575     0.9575    -0.0000

  Mayer bond orders larger than 0.1
B(  0-C ,  1-O ) :   0.9689 B(  0-C ,  3-H ) :   0.9750 B(  0-C ,  4-H ) :   0.9606 
B(  0-C ,  5-H ) :   0.9887 B(  1-O ,  2-H ) :   0.8998 B(  6-C ,  7-O ) :   1.0180 
B(  6-C ,  9-H ) :   0.9737 B(  6-C , 10-H ) :   0.9882 B(  6-C , 11-H ) :   0.9675 
B(  7-O ,  8-H ) :   0.8675 

-------
TIMINGS
-------

Total SCF time: 0 days 0 hours 0 min 16 sec 

Total time                  ....      16.593 sec
Sum of individual times     ....      16.231 sec  ( 97.8%)

Fock matrix formation       ....      15.673 sec  ( 94.5%)
  XC integration            ....       6.406 sec  ( 40.9% of F)
    Basis function eval.    ....       0.062 sec  (  1.0% of XC)
    Density eval.           ....       0.073 sec  (  1.1% of XC)
    XC-Functional eval.     ....       0.096 sec  (  1.5% of XC)
    XC-Potential eval.      ....       0.069 sec  (  1.1% of XC)
Diagonalization             ....       0.061 sec  (  0.4%)
Density matrix formation    ....       0.008 sec  (  0.1%)
Population analysis         ....       0.015 sec  (  0.1%)
Initial guess               ....       0.111 sec  (  0.7%)
Orbital Transformation      ....       0.000 sec  (  0.0%)
Orbital Orthonormalization  ....       0.000 sec  (  0.0%)
DIIS solution               ....       0.047 sec  (  0.3%)
SOSCF solution              ....       0.030 sec  (  0.2%)
Grid generation             ....       0.285 sec  (  1.7%)


-------------------------------------------------------------------------------
                          DFT DISPERSION CORRECTION                            
                                                                               
                              DFTD3 V3.1  Rev 1                                
                              USING zero damping                               
-------------------------------------------------------------------------------
The omegaB97X-D3 functional is recognized. Fit by Chai et al.
Active option DFTDOPT                   ...         3   

molecular C6(AA) [au] = 835.014924 


            DFT-D V3
 parameters
 s6 scaling factor         :     1.0000 
 rs6 scaling factor        :     1.2810 
 s8 scaling factor         :     1.0000 
 rs8 scaling factor        :     1.0940 
 Damping factor alpha6     :    14.0000 
 Damping factor alpha8     :    16.0000 
 ad hoc parameters k1-k3   :    16.0000     1.3333    -4.0000 

 Edisp/kcal,au: -1.013305157257  -0.001614804383 
 E6   /kcal   :  -0.458693002 
 E8   /kcal   :  -0.554612155 
 % E8         :  54.732984542 

-------------------------   ----------------
Dispersion correction           -0.001614804
-------------------------   ----------------


-------------------------   --------------------
FINAL SINGLE POINT ENERGY      -231.467482446681
-------------------------   --------------------


                            ***************************************
                            *     ORCA property calculations      *
                            ***************************************

                                    ---------------------
                                    Active property flags
                                    ---------------------
   (+) Dipole Moment


------------------------------------------------------------------------------
                       ORCA ELECTRIC PROPERTIES CALCULATION
------------------------------------------------------------------------------

Dipole Moment Calculation                       ... on
Quadrupole Moment Calculation                   ... off
Polarizability Calculation                      ... off
GBWName                                         ... 20-138_DFT_AB.gbw
Electron density file                           ... 20-138_DFT_AB.scfp.tmp
The origin for moment calculation is the CENTER OF MASS  = (-5.798886,  8.332544 -17.094193)

-------------
DIPOLE MOMENT
-------------
                                X             Y             Z
Electronic contribution:      0.63156       0.68283      -0.01371
Nuclear contribution   :     -2.00390      -0.33695       0.03089
                        -----------------------------------------
Total Dipole Moment    :     -1.37234       0.34588       0.01719
                        -----------------------------------------
Magnitude (a.u.)       :      1.41536
Magnitude (Debye)      :      3.59757



--------------------
Rotational spectrum 
--------------------
 
Rotational constants in cm-1:     0.676264     0.070290     0.066024 
Rotational constants in MHz : 20273.883673  2107.248777  1979.354242 

 Dipole components along the rotational axes: 
x,y,z [a.u.] :     1.269072     0.607913     0.152155 
x,y,z [Debye]:     3.225724     1.545191     0.386748 

 
------------------------------------------------------------------------------
                      ORCA CHELPG CHARGES GENERATION
------------------------------------------------------------------------------

GBW file                           ... 20-138_DFT_AB.gbw

Reading the GBW file               ... done

Grid spacing                       ...     0.300000
Point Cut-Off                      ...     2.800000
Van-der-Waals Radii                ...        COSMO
Total charge                       ...            0


Number of points X direction       ...           36
Number of points Y direction       ...           31
Number of points Z direction       ...           32
Maximum number of possible points  ...        35712
Final number of points             ...         9991


CHELPG Charges            
--------------------------------
  0   C   :      -0.065617
  1   O   :      -0.615108
  2   H   :       0.444942
  3   H   :       0.091941
  4   H   :       0.075434
  5   H   :       0.064831
  6   C   :       0.064461
  7   O   :      -0.628024
  8   H   :       0.485682
  9   H   :      -0.002191
 10   H   :       0.004411
 11   H   :       0.079237
--------------------------------
Total charge:     0.000000
--------------------------------

CHELPG charges calculated...

Timings for individual parts in CHELPG calculation:
Grid generation                 ...        0.002 sec (=   0.000 min)
Potential calculation           ...        2.169 sec (=   0.036 min)
Fit to the potential            ...        0.004 sec (=   0.000 min)
------------------------------------------------------------------------------


Timings for individual modules:

Sum of individual times         ...       23.962 sec (=   0.399 min)
GTO integral calculation        ...        3.396 sec (=   0.057 min)  14.2 %
SCF iterations                  ...       18.361 sec (=   0.306 min)  76.6 %
CHELPG charge generation        ...        2.205 sec (=   0.037 min)   9.2 %


                 $$$$$$$$$$$$$$$$  JOB NUMBER  2 $$$$$$$$$$$$$$


                       ****************************
                       * Single Point Calculation *
                       ****************************

---------------------------------
CARTESIAN COORDINATES (ANGSTROEM)
---------------------------------
  C     -4.905139    5.262568  -10.301868
  O     -4.333922    5.021783   -9.019390
  H     -4.942635    5.445550   -8.437080
  H     -4.087589    5.285542  -11.069867
  H     -5.760049    4.649201  -10.628340
  H     -5.338715    6.228068  -10.267397
  C     -1.391945    3.297520   -7.878447
  O     -1.548555    4.014057   -9.007819
  H     -2.491489    4.133702   -9.258821
  H     -1.953114    3.750853   -7.007505
  H     -1.819787    2.295117   -8.033450
  H     -0.295701    3.124531   -7.632486

----------------------------
CARTESIAN COORDINATES (A.U.)
----------------------------
  NO LB      ZA    FRAG     MASS         X           Y           Z
   0 C     6.0000    0    12.011   -9.269369    9.944812  -19.467709
   1 O     8.0000    0    15.999   -8.189926    9.489795  -17.044177
   2 H     1.0000    0     1.008   -9.340227   10.290598  -15.943771
   3 H     1.0000    0     1.008   -7.724424    9.988227  -20.919017
   4 H     1.0000    0     1.008  -10.884915    8.785717  -20.084652
   5 H     1.0000    0     1.008  -10.088709   11.769343  -19.402568
   6 C     0.0000    0     0.000   -2.630395    6.231410  -14.888107
   7 O     0.0000    0     0.000   -2.926345    7.585468  -17.022311
   8 H     0.0000    0     0.000   -4.708232    7.811565  -17.496636
   9 H     0.0000    0     0.000   -3.690851    7.088085  -13.242265
  10 H     0.0000    0     0.000   -3.438899    4.337143  -15.181020
  11 H     0.0000    0     0.000   -0.558794    5.904508  -14.423308

--------------------------------
INTERNAL COORDINATES (ANGSTROEM)
--------------------------------
 C      0   0   0     0.000000000000     0.00000000     0.00000000
 O      1   0   0     1.424435361046     0.00000000     0.00000000
 H      2   1   0     0.942971326583   102.77688254     0.00000000
 H      1   2   3     1.121935056577   109.12050401   151.72124437
 H      1   2   3     1.101668803032   118.93958290   281.81481750
 H      1   2   3     1.058946007886   106.79841280    35.71251177
 C      2   1   3     3.595839608624   134.01321199   179.70957806
 O      7   2   1     1.346637693982    51.94627017    35.09134033
 H      8   7   2     0.983077544441   112.98159264   340.52512326
 H      7   2   1     1.130911766149    69.27765201   178.71516551
 H      7   2   1     1.100857157574    94.24269378   284.54370443
 H      7   2   1     1.136737839248   158.53535812    81.39604252

---------------------------
INTERNAL COORDINATES (A.U.)
---------------------------
 C      0   0   0     0.000000000000     0.00000000     0.00000000
 O      1   0   0     2.691792727850     0.00000000     0.00000000
 H      2   1   0     1.781957559383   102.77688254     0.00000000
 H      1   2   3     2.120149996976   109.12050401   151.72124437
 H      1   2   3     2.081852328014   118.93958290   281.81481750
 H      1   2   3     2.001117945513   106.79841280    35.71251177
 C      2   1   3     6.795152081805   134.01321199   179.70957806
 O      7   2   1     2.544776443241    51.94627017    35.09134033
 H      8   7   2     1.857747327402   112.98159264   340.52512326
 H      7   2   1     2.137113519651    69.27765201   178.71516551
 H      7   2   1     2.080318540382    94.24269378   284.54370443
 H      7   2   1     2.148123202244   158.53535812    81.39604252

---------------------
BASIS SET INFORMATION
---------------------
There are 3 groups of distinct atoms

 Group   1 Type C   : 11s6p2d1f contracted to 5s3p2d1f pattern {62111/411/11/1}
 Group   2 Type O   : 11s6p2d1f contracted to 5s3p2d1f pattern {62111/411/11/1}
 Group   3 Type H   : 5s1p contracted to 3s1p pattern {311/1}

Atom   0C    basis set group =>   1
Atom   1O    basis set group =>   2
Atom   2H    basis set group =>   3
Atom   3H    basis set group =>   3
Atom   4H    basis set group =>   3
Atom   5H    basis set group =>   3
Atom   6C    basis set group =>   1
Atom   7O    basis set group =>   2
Atom   8H    basis set group =>   3
Atom   9H    basis set group =>   3
Atom  10H    basis set group =>   3
Atom  11H    basis set group =>   3


           ************************************************************
           *        Program running with 8 parallel MPI-processes     *
           *              working on a common directory               *
           ************************************************************
------------------------------------------------------------------------------
                           ORCA GTO INTEGRAL CALCULATION
------------------------------------------------------------------------------

                         BASIS SET STATISTICS AND STARTUP INFO

 # of primitive gaussian shells          ...  128
 # of primitive gaussian functions       ...  248
 # of contracted shells                  ...   76
 # of contracted basis functions         ...  172
 Highest angular momentum                ...    3
 Maximum contraction depth               ...    6
 Integral package used                   ... LIBINT
 Integral threshhold            Thresh   ...  2.500e-11
 Primitive cut-off              TCut     ...  2.500e-12


------------------------------ INTEGRAL EVALUATION ----------------------------


 * One electron integrals 
 Pre-screening matrix                    ... done
 Shell pair data                         ... done (   0.001 sec)



           ************************************************************
           *        Program running with 8 parallel MPI-processes     *
           *              working on a common directory               *
           ************************************************************
-------------------------------------------------------------------------------
                                 ORCA SCF
-------------------------------------------------------------------------------

------------
SCF SETTINGS
------------
Hamiltonian:
 Density Functional     Method          .... DFT(GTOs)
 Exchange Functional    Exchange        .... WB97X-D3
 Correlation Functional Correlation     .... WB97X-D3
 Gradients option       PostSCFGGA      .... off
 Hybrid DFT is turned on
   Fraction HF Exchange ScalHFX         ....  0.195728
   Scaling of DF-GGA-X  ScalDFX         ....  0.000000
   Scaling of DF-GGA-C  ScalDFC         ....  1.000000
   Scaling of DF-LDA-C  ScalLDAC        ....  1.000000
   Perturbative correction              ....  0.000000
   Density functional embedding theory  .... OFF
 Long-range corrected/Screened/Range-Separated Hybrid DFT is turned on
   Amount of maximum screened exact exchange              ....  0.804272
   Range separation parameter mu (erf(mu*r12)/r12)        ....  0.250000


General Settings:
 Integral files         IntName         .... 20-138_DFT_A
 Hartree-Fock type      HFTyp           .... RHF
 Total Charge           Charge          ....    0
 Multiplicity           Mult            ....    1
 Number of Electrons    NEL             ....   18
 Basis Dimension        Dim             ....  172
 Nuclear Repulsion      ENuc            ....     40.3800012264 Eh

Convergence Acceleration:
 DIIS                   CNVDIIS         .... on
   Start iteration      DIISMaxIt       ....    12
   Startup error        DIISStart       ....  0.200000
   # of expansion vecs  DIISMaxEq       ....     5
   Bias factor          DIISBfac        ....   1.050
   Max. coefficient     DIISMaxC        ....  10.000
 Newton-Raphson         CNVNR           .... off
 SOSCF                  CNVSOSCF        .... on
   Start iteration      SOSCFMaxIt      ....   150
   Startup grad/error   SOSCFStart      ....  0.003300
 Level Shifting         CNVShift        .... on
   Level shift para.    LevelShift      ....    0.2500
   Turn off err/grad.   ShiftErr        ....    0.0010
 Zerner damping         CNVZerner       .... off
 Static damping         CNVDamp         .... on
   Fraction old density DampFac         ....    0.7000
   Max. Damping (<1)    DampMax         ....    0.9800
   Min. Damping (>=0)   DampMin         ....    0.0000
   Turn off err/grad.   DampErr         ....    0.1000
 Fernandez-Rico         CNVRico         .... off

SCF Procedure:
 Maximum # iterations   MaxIter         ....  1000
 SCF integral mode      SCFMode         .... Direct
   Integral package                     .... LIBINT
 Reset frequency        DirectResetFreq ....    20
 Integral Threshold     Thresh          ....  2.500e-11 Eh
 Primitive CutOff       TCut            ....  2.500e-12 Eh

Convergence Tolerance:
 Convergence Check Mode ConvCheckMode   .... Total+1el-Energy
 Convergence forced     ConvForced      .... 0
 Energy Change          TolE            ....  1.000e-08 Eh
 1-El. energy change                    ....  1.000e-05 Eh
 Orbital Gradient       TolG            ....  1.000e-05
 Orbital Rotation angle TolX            ....  1.000e-05
 DIIS Error             TolErr          ....  5.000e-07


Diagonalization of the overlap matrix:
Smallest eigenvalue                        ... 1.612e-03
Time for diagonalization                   ...    0.005 sec
Threshold for overlap eigenvalues          ... 1.000e-08
Number of eigenvalues below threshold      ... 0
Time for construction of square roots      ...    0.024 sec
Total time needed                          ...    0.029 sec

-------------------
DFT GRID GENERATION
-------------------

General Integration Accuracy     IntAcc      ...  4.340
Radial Grid Type                 RadialGrid  ... Gauss-Chebyshev
Angular Grid (max. acc.)         AngularGrid ... Lebedev-110
Angular grid pruning method      GridPruning ... 3 (G Style)
Weight generation scheme         WeightScheme... Becke
Basis function cutoff            BFCut       ...    1.0000e-11
Integration weight cutoff        WCut        ...    1.0000e-14
Grids for H and He will be reduced by one unit

# of grid points (after initial pruning)     ...  13096 (   0.0 sec)
# of grid points (after weights+screening)   ...  12524 (   0.0 sec)
nearest neighbour list constructed           ...    0.0 sec
Grid point re-assignment to atoms done       ...    0.0 sec
Grid point division into batches done        ...    0.0 sec
Reduced shell lists constructed in    0.0 sec

Total number of grid points                  ...    12524
Total number of batches                      ...      200
Average number of points per batch           ...       62
Average number of grid points per atom       ...     1044
Average number of shells per batch           ...    57.62 (75.81%)
Average number of basis functions per batch  ...   130.38 (75.81%)
Average number of large shells per batch     ...    47.81 (82.98%)
Average number of large basis fcns per batch ...   105.81 (81.15%)
Maximum spatial batch extension              ...   5.02,  6.51,  4.08 au
Average spatial batch extension              ...   0.22,  0.24,  0.21 au

Time for grid setup =    0.043 sec

------------------------------
INITIAL GUESS: MODEL POTENTIAL
------------------------------
Loading Hartree-Fock densities                     ... done
Calculating cut-offs                               ... done
Setting up the integral package                    ... done
Initializing the effective Hamiltonian             ... done
Starting the Coulomb interaction                   ... done (   0.0 sec)
Reading the grid                                   ... done
Mapping shells                                     ... done
Starting the XC term evaluation                    ... done (   0.0 sec)
  promolecular density results
     # of electrons  =     17.997678064
     EX              =    -14.431785361
     EC              =     -0.575650473
     EX+EC           =    -15.007435834
Transforming the Hamiltonian                       ... done (   0.0 sec)
Diagonalizing the Hamiltonian                      ... done (   0.0 sec)
Back transforming the eigenvectors                 ... done (   0.0 sec)
Now organizing SCF variables                       ... done
                      ------------------
                      INITIAL GUESS DONE (   0.2 sec)
                      ------------------
--------------
SCF ITERATIONS
--------------
ITER       Energy         Delta-E        Max-DP      RMS-DP      [F,P]     Damp
               ***  Starting incremental Fock matrix formation  ***
  0   -115.6451456177   0.000000000000 0.03668968  0.00075850  0.2417909 0.7000
  1   -115.6814534032  -0.036307785532 0.02186289  0.00054063  0.1200947 0.7000
                               ***Turning on DIIS***
  2   -115.6982228813  -0.016769478071 0.03578496  0.00097716  0.0462099 0.0000
  3   -115.7255525237  -0.027329642406 0.01796075  0.00035727  0.0608225 0.0000
  4   -115.7299660626  -0.004413538919 0.00411908  0.00007092  0.0061104 0.0000
                      *** Initiating the SOSCF procedure ***
                           *** Shutting down DIIS ***
                      *** Re-Reading the Fockian *** 
                      *** Removing any level shift *** 
ITER      Energy       Delta-E        Grad      Rot      Max-DP    RMS-DP
  5   -115.73005915  -0.0000930845  0.000430  0.000430  0.000705  0.000025
               *** Restarting incremental Fock matrix formation ***
  6   -115.73006763  -0.0000084822  0.000141  0.000172  0.000533  0.000016
  7   -115.73006849  -0.0000008561  0.000047  0.000093  0.000242  0.000007
  8   -115.73006856  -0.0000000766  0.000016  0.000015  0.000027  0.000001
  9   -115.73006857  -0.0000000047  0.000008  0.000006  0.000011  0.000000
                  ***Gradient check signals convergence***
              ***Rediagonalizing the Fockian in SOSCF/NRSCF***

               *****************************************************
               *                     SUCCESS                       *
               *           SCF CONVERGED AFTER  10 CYCLES          *
               *****************************************************

Setting up the final grid:

General Integration Accuracy     IntAcc      ...  4.670
Radial Grid Type                 RadialGrid  ... Gauss-Chebyshev
Angular Grid (max. acc.)         AngularGrid ... Lebedev-302
Angular grid pruning method      GridPruning ... 3 (G Style)
Weight generation scheme         WeightScheme... Becke
Basis function cutoff            BFCut       ...    1.0000e-11
Integration weight cutoff        WCut        ...    1.0000e-14
Grids for H and He will be reduced by one unit

# of grid points (after initial pruning)     ...  52000 (   0.0 sec)
# of grid points (after weights+screening)   ...  49241 (   0.0 sec)
nearest neighbour list constructed           ...    0.0 sec
Grid point re-assignment to atoms done       ...    0.0 sec
Grid point division into batches done        ...    0.2 sec
Reduced shell lists constructed in    0.2 sec

Total number of grid points                  ...    49241
Total number of batches                      ...      774
Average number of points per batch           ...       63
Average number of grid points per atom       ...     4103
Average number of shells per batch           ...    57.05 (75.07%)
Average number of basis functions per batch  ...   127.93 (74.38%)
Average number of large shells per batch     ...    47.10 (82.56%)
Average number of large basis fcns per batch ...   104.61 (81.77%)
Maximum spatial batch extension              ...   3.74,  3.92,  3.81 au
Average spatial batch extension              ...   0.14,  0.15,  0.14 au

Final grid set up in    0.2 sec
Final integration                            ... done (   0.1 sec)
Change in XC energy                          ...    -0.000079175
Integrated number of electrons               ...    18.000018070
Previous integrated no of electrons          ...    17.998452352

----------------
TOTAL SCF ENERGY
----------------

Total Energy       :         -115.73014774 Eh           -3149.17742 eV

Components:
Nuclear Repulsion  :           40.38000123 Eh            1098.79570 eV
Electronic Energy  :         -156.11014897 Eh           -4247.97312 eV
One Electron Energy:         -237.12301806 Eh           -6452.44536 eV
Two Electron Energy:           81.01286909 Eh            2204.47224 eV

Virial components:
Potential Energy   :         -231.00083433 Eh           -6285.85227 eV
Kinetic Energy     :          115.27068659 Eh            3136.67485 eV
Virial Ratio       :            2.00398593


DFT components:
N(Alpha)           :        9.000009034780 electrons
N(Beta)            :        9.000009034780 electrons
N(Total)           :       18.000018069560 electrons
E(XC)              :      -10.656655651289 Eh       
DFET-embed. en.    :        0.000000000000 Eh       

---------------
SCF CONVERGENCE
---------------

  Last Energy change         ...   -1.1957e-09  Tolerance :   1.0000e-08
  Last MAX-Density change    ...    3.5519e-06  Tolerance :   1.0000e-07
  Last RMS-Density change    ...    9.4241e-08  Tolerance :   5.0000e-09
  Last Orbital Gradient      ...    2.0051e-06  Tolerance :   1.0000e-05
  Last Orbital Rotation      ...    2.7215e-06  Tolerance :   1.0000e-05

             **** THE GBW FILE WAS UPDATED (20-138_DFT_A.gbw) ****
             **** DENSITY FILE WAS UPDATED (20-138_DFT_A.scfp.tmp) ****
             **** ENERGY FILE WAS UPDATED (20-138_DFT_A.en.tmp) ****
----------------
ORBITAL ENERGIES
----------------

  NO   OCC          E(Eh)            E(eV) 
   0   2.0000     -19.232384      -523.3398 
   1   2.0000     -10.314668      -280.6764 
   2   2.0000      -1.141978       -31.0748 
   3   2.0000      -0.796041       -21.6614 
   4   2.0000      -0.617576       -16.8051 
   5   2.0000      -0.537320       -14.6212 
   6   2.0000      -0.524541       -14.2735 
   7   2.0000      -0.442355       -12.0371 
   8   2.0000      -0.375829       -10.2268 
   9   0.0000       0.100591         2.7372 
  10   0.0000       0.122268         3.3271 
  11   0.0000       0.152199         4.1415 
  12   0.0000       0.181297         4.9333 
  13   0.0000       0.205337         5.5875 
  14   0.0000       0.211305         5.7499 
  15   0.0000       0.215915         5.8753 
  16   0.0000       0.226386         6.1603 
  17   0.0000       0.238577         6.4920 
  18   0.0000       0.295395         8.0381 
  19   0.0000       0.315352         8.5812 
  20   0.0000       0.333915         9.0863 
  21   0.0000       0.340318         9.2605 
  22   0.0000       0.359597         9.7851 
  23   0.0000       0.365524         9.9464 
  24   0.0000       0.418993        11.4014 
  25   0.0000       0.448325        12.1995 
  26   0.0000       0.491154        13.3650 
  27   0.0000       0.504410        13.7257 
  28   0.0000       0.516860        14.0645 
  29   0.0000       0.550647        14.9839 
  30   0.0000       0.552008        15.0209 
  31   0.0000       0.580268        15.7899 
  32   0.0000       0.604256        16.4426 
  33   0.0000       0.630771        17.1642 
  34   0.0000       0.671761        18.2796 
  35   0.0000       0.679704        18.4957 
  36   0.0000       0.708188        19.2708 
  37   0.0000       0.757047        20.6003 
  38   0.0000       0.782477        21.2923 
  39   0.0000       0.812414        22.1069 
  40   0.0000       0.818266        22.2661 
  41   0.0000       0.852674        23.2024 
  42   0.0000       0.899185        24.4681 
  43   0.0000       0.981937        26.7199 
  44   0.0000       1.043926        28.4067 
  45   0.0000       1.067411        29.0457 
  46   0.0000       1.069227        29.0951 
  47   0.0000       1.119086        30.4519 
  48   0.0000       1.167056        31.7572 
  49   0.0000       1.184585        32.2342 
  50   0.0000       1.226688        33.3799 
  51   0.0000       1.236721        33.6529 
  52   0.0000       1.266602        34.4660 
  53   0.0000       1.377278        37.4776 
  54   0.0000       1.397375        38.0245 
  55   0.0000       1.425105        38.7791 
  56   0.0000       1.481156        40.3043 
  57   0.0000       1.494829        40.6764 
  58   0.0000       1.561331        42.4860 
  59   0.0000       1.586916        43.1822 
  60   0.0000       1.618877        44.0519 
  61   0.0000       1.636709        44.5371 
  62   0.0000       1.641434        44.6657 
  63   0.0000       1.702143        46.3177 
  64   0.0000       1.705538        46.4100 
  65   0.0000       1.794271        48.8246 
  66   0.0000       1.844920        50.2028 
  67   0.0000       1.954166        53.1756 
  68   0.0000       1.964487        53.4564 
  69   0.0000       1.982108        53.9359 
  70   0.0000       2.017219        54.8913 
  71   0.0000       2.088762        56.8381 
  72   0.0000       2.114635        57.5421 
  73   0.0000       2.136207        58.1291 
  74   0.0000       2.186223        59.4901 
  75   0.0000       2.196197        59.7616 
  76   0.0000       2.206326        60.0372 
  77   0.0000       2.240304        60.9618 
  78   0.0000       2.262407        61.5632 
  79   0.0000       2.281445        62.0813 
  80   0.0000       2.352449        64.0134 
  81   0.0000       2.374130        64.6034 
  82   0.0000       2.419743        65.8446 
  83   0.0000       2.495417        67.9038 
  84   0.0000       2.497141        67.9507 
  85   0.0000       2.570868        69.9569 
  86   0.0000       2.615946        71.1835 
  87   0.0000       2.629450        71.5510 
  88   0.0000       2.658061        72.3295 
  89   0.0000       2.681396        72.9645 
  90   0.0000       2.693541        73.2950 
  91   0.0000       2.703831        73.5750 
  92   0.0000       2.836654        77.1893 
  93   0.0000       2.870893        78.1210 
  94   0.0000       2.914490        79.3073 
  95   0.0000       2.958572        80.5068 
  96   0.0000       2.983758        81.1922 
  97   0.0000       3.030369        82.4605 
  98   0.0000       3.090186        84.0882 
  99   0.0000       3.100922        84.3804 
 100   0.0000       3.125369        85.0456 
 101   0.0000       3.178617        86.4946 
 102   0.0000       3.219519        87.6076 
 103   0.0000       3.258881        88.6787 
 104   0.0000       3.292308        89.5882 
 105   0.0000       3.362390        91.4953 
 106   0.0000       3.386307        92.1461 
 107   0.0000       3.446562        93.7857 
 108   0.0000       3.463238        94.2395 
 109   0.0000       3.490599        94.9840 
 110   0.0000       3.510735        95.5320 
 111   0.0000       3.586558        97.5952 
 112   0.0000       3.599337        97.9429 
 113   0.0000       3.633522        98.8732 
 114   0.0000       3.674251        99.9815 
 115   0.0000       3.691596       100.4534 
 116   0.0000       3.729902       101.4958 
 117   0.0000       4.032557       109.7314 
 118   0.0000       4.138022       112.6013 
 119   0.0000       4.140567       112.6706 
 120   0.0000       4.185854       113.9029 
 121   0.0000       4.311271       117.3156 
 122   0.0000       4.325380       117.6996 
 123   0.0000       4.376422       119.0885 
 124   0.0000       4.398571       119.6912 
 125   0.0000       4.408201       119.9532 
 126   0.0000       4.511019       122.7511 
 127   0.0000       4.564356       124.2024 
 128   0.0000       4.587070       124.8205 
 129   0.0000       4.605123       125.3118 
 130   0.0000       4.646965       126.4503 
 131   0.0000       4.961923       135.0208 
 132   0.0000       5.041895       137.1969 
 133   0.0000       5.113159       139.1361 
 134   0.0000       5.312841       144.5698 
 135   0.0000       5.371005       146.1525 
 136   0.0000       5.480612       149.1350 
 137   0.0000       5.504584       149.7873 
 138   0.0000       5.552981       151.1043 
 139   0.0000       5.727011       155.8399 
 140   0.0000       5.765702       156.8927 
 141   0.0000       5.795723       157.7096 
 142   0.0000       5.810841       158.1210 
 143   0.0000       5.935149       161.5036 
 144   0.0000       6.007483       163.4719 
 145   0.0000       6.385077       173.7468 
 146   0.0000       6.541077       177.9917 
 147   0.0000       6.636757       180.5953 
 148   0.0000       6.720970       182.8869 
 149   0.0000       6.783102       184.5776 
 150   0.0000       6.815827       185.4681 
 151   0.0000       6.931988       188.6290 
 152   0.0000       7.046193       191.7367 
 153   0.0000       7.223126       196.5513 
 154   0.0000       7.294544       198.4946 
 155   0.0000       7.433849       202.2853 
 156   0.0000       7.606846       206.9928 
 157   0.0000       8.098216       220.3636 
 158   0.0000       8.969475       244.0718 
 159   0.0000       9.323294       253.6997 
 160   0.0000       9.600322       261.2380 
 161   0.0000       9.618453       261.7314 
 162   0.0000       9.869621       268.5660 
 163   0.0000       9.907912       269.6080 
 164   0.0000      10.025796       272.8158 
[...]
  82   0.0000       2.404509        65.4300 
  83   0.0000       2.440884        66.4198 
  84   0.0000       2.492447        67.8229 
  85   0.0000       2.499072        68.0032 
  86   0.0000       2.527028        68.7639 
  87   0.0000       2.574897        70.0665 
  88   0.0000       2.624930        71.4280 
  89   0.0000       2.670489        72.6677 
  90   0.0000       2.693434        73.2921 
  91   0.0000       2.713853        73.8477 
  92   0.0000       2.820810        76.7582 
  93   0.0000       2.850543        77.5672 
  94   0.0000       2.862838        77.9018 
  95   0.0000       2.945318        80.1462 
  96   0.0000       2.968069        80.7653 
  97   0.0000       3.007347        81.8341 
  98   0.0000       3.036555        82.6289 
  99   0.0000       3.092816        84.1598 
 100   0.0000       3.124143        85.0123 
 101   0.0000       3.169024        86.2335 
 102   0.0000       3.176321        86.4321 
 103   0.0000       3.230449        87.9050 
 104   0.0000       3.282180        89.3127 
 105   0.0000       3.289902        89.5228 
 106   0.0000       3.355875        91.3180 
 107   0.0000       3.364709        91.5584 
 108   0.0000       3.407883        92.7332 
 109   0.0000       3.485507        94.8455 
 110   0.0000       3.512906        95.5910 
 111   0.0000       3.596339        97.8614 
 112   0.0000       3.651803        99.3706 
 113   0.0000       3.653721        99.4228 
 114   0.0000       3.683108       100.2225 
 115   0.0000       3.710704       100.9734 
 116   0.0000       3.788123       103.0801 
 117   0.0000       3.998550       108.8061 
 118   0.0000       4.071005       110.7777 
 119   0.0000       4.132570       112.4530 
 120   0.0000       4.154950       113.0619 
 121   0.0000       4.251910       115.7004 
 122   0.0000       4.263185       116.0072 
 123   0.0000       4.277013       116.3835 
 124   0.0000       4.320597       117.5694 
 125   0.0000       4.365045       118.7789 
 126   0.0000       4.520659       123.0134 
 127   0.0000       4.530825       123.2900 
 128   0.0000       4.547396       123.7409 
 129   0.0000       4.562921       124.1634 
 130   0.0000       4.635819       126.1470 
 131   0.0000       5.054338       137.5355 
 132   0.0000       5.066222       137.8589 
 133   0.0000       5.121480       139.3626 
 134   0.0000       5.346553       145.4871 
 135   0.0000       5.363092       145.9372 
 136   0.0000       5.425157       147.6260 
 137   0.0000       5.464687       148.7017 
 138   0.0000       5.593997       152.2204 
 139   0.0000       5.778329       157.2363 
 140   0.0000       5.838271       158.8674 
 141   0.0000       5.920508       161.1052 
 142   0.0000       5.942224       161.6961 
 143   0.0000       6.052202       164.6888 
 144   0.0000       6.130051       166.8072 
 145   0.0000       6.353748       172.8943 
 146   0.0000       6.541255       177.9966 
 147   0.0000       6.615121       180.0066 
 148   0.0000       6.728491       183.0915 
 149   0.0000       6.765038       184.0860 
 150   0.0000       6.821465       185.6215 
 151   0.0000       6.861713       186.7167 
 152   0.0000       7.040155       191.5723 
 153   0.0000       7.062730       192.1867 
 154   0.0000       7.201815       195.9713 
 155   0.0000       7.251967       197.3361 
 156   0.0000       7.407987       201.5816 
 157   0.0000       8.174645       222.4434 
 158   0.0000       8.865748       241.2493 
 159   0.0000       9.384916       255.3765 
 160   0.0000       9.517144       258.9747 
 161   0.0000       9.545140       259.7365 
 162   0.0000       9.751784       265.3595 
 163   0.0000       9.865251       268.4471 
 164   0.0000       9.935131       270.3486 
 165   0.0000      10.056473       273.6505 
 166   0.0000      11.129675       302.8539 
 167   0.0000      19.087000       519.3837 
 168   0.0000      22.476640       611.6205 
 169   0.0000      43.767382      1190.9710 
 170   0.0000      65.866403      1792.3159 
 171   0.0000     126.411064      3439.8199 

                    ********************************
                    * MULLIKEN POPULATION ANALYSIS *
                    ********************************

-----------------------
MULLIKEN ATOMIC CHARGES
-----------------------
   0 C :   -0.003086
   1 O :   -0.003083
   2 H :   -0.000145
   3 H :    0.000211
   4 H :    0.000140
   5 H :    0.000195
   6 C :   -0.143623
   7 O :   -0.463387
   8 H :    0.322563
   9 H :    0.085813
  10 H :    0.090018
  11 H :    0.114382
Sum of atomic charges:   -0.0000000

--------------------------------
MULLIKEN REDUCED ORBITAL CHARGES
--------------------------------
  0 C s       :     0.002030  s :     0.002030
      pz      :     0.000566  p :     0.001037
      px      :     0.000130
      py      :     0.000341
      dz2     :    -0.000002  d :     0.000018
      dxz     :     0.000032
      dyz     :    -0.000006
      dx2y2   :    -0.000009
      dxy     :     0.000003
      f0      :    -0.000000  f :     0.000001
      f+1     :     0.000000
      f-1     :     0.000000
      f+2     :     0.000000
      f-2     :     0.000000
      f+3     :    -0.000000
      f-3     :     0.000001
  1 O s       :    -0.001787  s :    -0.001787
      pz      :     0.000006  p :     0.004959
      px      :     0.004405
      py      :     0.000549
      dz2     :    -0.000002  d :    -0.000088
      dxz     :    -0.000006
      dyz     :     0.000000
      dx2y2   :    -0.000031
      dxy     :    -0.000050
      f0      :    -0.000000  f :    -0.000002
      f+1     :    -0.000001
      f-1     :    -0.000000
      f+2     :    -0.000000
      f-2     :    -0.000000
      f+3     :     0.000000
      f-3     :    -0.000001
  2 H s       :     0.000148  s :     0.000148
      pz      :     0.000002  p :    -0.000002
      px      :    -0.000003
      py      :    -0.000001
  3 H s       :    -0.000214  s :    -0.000214
      pz      :     0.000004  p :     0.000003
      px      :    -0.000001
      py      :    -0.000000
  4 H s       :    -0.000140  s :    -0.000140
      pz      :    -0.000000  p :    -0.000000
      px      :    -0.000000
      py      :    -0.000000
  5 H s       :    -0.000195  s :    -0.000195
      pz      :    -0.000000  p :    -0.000000
      px      :     0.000000
      py      :    -0.000000
  6 C s       :     3.221453  s :     3.221453
      pz      :     0.790092  p :     2.804509
      px      :     1.076667
      py      :     0.937750
      dz2     :     0.035094  d :     0.108667
      dxz     :     0.026282
      dyz     :     0.016148
      dx2y2   :     0.018172
      dxy     :     0.012971
      f0      :     0.002433  f :     0.008993
      f+1     :     0.001105
      f-1     :     0.001864
      f+2     :     0.001533
      f-2     :     0.001322
      f+3     :     0.000566
      f-3     :     0.000169
  7 O s       :     3.777995  s :     3.777995
      pz      :     1.493334  p :     4.651919
      px      :     1.404083
      py      :     1.754502
      dz2     :     0.008639  d :     0.031606
      dxz     :     0.004626
      dyz     :     0.006919
      dx2y2   :     0.009101
      dxy     :     0.002322
      f0      :     0.000277  f :     0.001867
      f+1     :     0.000207
      f-1     :     0.000449
      f+2     :     0.000293
      f-2     :     0.000237
      f+3     :     0.000314
      f-3     :     0.000090
  8 H s       :     0.632939  s :     0.632939
      pz      :     0.012397  p :     0.044498
      px      :     0.017539
      py      :     0.014562
  9 H s       :     0.895909  s :     0.895909
      pz      :     0.008340  p :     0.018277
      px      :     0.005472
      py      :     0.004466
 10 H s       :     0.890582  s :     0.890582
      pz      :     0.003294  p :     0.019399
      px      :     0.005070
      py      :     0.011036
 11 H s       :     0.866852  s :     0.866852
      pz      :     0.003004  p :     0.018766
      px      :     0.012028
      py      :     0.003734


                     *******************************
                     * LOEWDIN POPULATION ANALYSIS *
                     *******************************

----------------------
LOEWDIN ATOMIC CHARGES
----------------------
   0 C :   -0.004237
   1 O :   -0.015405
   2 H :   -0.000648
   3 H :   -0.000650
   4 H :   -0.000054
   5 H :   -0.000083
   6 C :   -0.447073
   7 O :   -0.029729
   8 H :    0.195235
   9 H :    0.095413
  10 H :    0.090606
  11 H :    0.116624

-------------------------------
LOEWDIN REDUCED ORBITAL CHARGES
-------------------------------
  0 C s       :     0.000709  s :     0.000709
      pz      :     0.000758  p :     0.003447
      px      :     0.002008
      py      :     0.000681
      dz2     :     0.000003  d :     0.000079
      dxz     :     0.000007
      dyz     :     0.000003
      dx2y2   :     0.000025
      dxy     :     0.000042
      f0      :     0.000000  f :     0.000001
      f+1     :     0.000000
      f-1     :     0.000000
      f+2     :     0.000000
      f-2     :     0.000000
      f+3     :     0.000000
      f-3     :     0.000001
  1 O s       :     0.001898  s :     0.001898
      pz      :     0.000318  p :     0.013114
      px      :     0.010218
      py      :     0.002578
      dz2     :     0.000082  d :     0.000382
      dxz     :     0.000013
      dyz     :     0.000003
      dx2y2   :     0.000114
      dxy     :     0.000170
      f0      :     0.000000  f :     0.000011
      f+1     :     0.000003
      f-1     :     0.000001
      f+2     :     0.000000
      f-2     :     0.000000
      f+3     :     0.000001
      f-3     :     0.000006
  2 H s       :     0.000645  s :     0.000645
      pz      :     0.000000  p :     0.000003
      px      :     0.000002
      py      :     0.000000
  3 H s       :     0.000649  s :     0.000649
      pz      :     0.000001  p :     0.000002
      px      :     0.000001
      py      :     0.000000
  4 H s       :     0.000053  s :     0.000053
      pz      :     0.000000  p :     0.000001
      px      :     0.000000
      py      :     0.000000
  5 H s       :     0.000082  s :     0.000082
      pz      :     0.000000  p :     0.000001
      px      :     0.000000
      py      :     0.000000
  6 C s       :     2.865156  s :     2.865156
      pz      :     0.933710  p :     3.046238
      px      :     1.091212
      py      :     1.021316
      dz2     :     0.151792  d :     0.466023
      dxz     :     0.087386
      dyz     :     0.099363
      dx2y2   :     0.083734
      dxy     :     0.043748
      f0      :     0.017969  f :     0.069656
      f+1     :     0.009756
      f-1     :     0.014351
      f+2     :     0.010004
      f-2     :     0.011136
      f+3     :     0.004265
      f-3     :     0.002175
  7 O s       :     3.328098  s :     3.328098
      pz      :     1.531456  p :     4.613735
      px      :     1.396333
      py      :     1.685946
      dz2     :     0.023263  d :     0.082465
      dxz     :     0.016826
      dyz     :     0.017446
      dx2y2   :     0.018419
      dxy     :     0.006510
      f0      :     0.001163  f :     0.005431
      f+1     :     0.000870
      f-1     :     0.001041
      f+2     :     0.000751
      f-2     :     0.000730
      f+3     :     0.000717
      f-3     :     0.000160
  8 H s       :     0.657189  s :     0.657189
      pz      :     0.032479  p :     0.147576
      px      :     0.076505
      py      :     0.038592
  9 H s       :     0.850464  s :     0.850464
      pz      :     0.023776  p :     0.054123
      px      :     0.016649
      py      :     0.013698
 10 H s       :     0.850687  s :     0.850687
      pz      :     0.010244  p :     0.058707
      px      :     0.016273
      py      :     0.032190
 11 H s       :     0.830826  s :     0.830826
      pz      :     0.008510  p :     0.052550
      px      :     0.033768
      py      :     0.010272


                      *****************************
                      * MAYER POPULATION ANALYSIS *
                      *****************************

  NA   - Mulliken gross atomic population
  ZA   - Total nuclear charge
  QA   - Mulliken gross atomic charge
  VA   - Mayer's total valence
  BVA  - Mayer's bonded valence
  FA   - Mayer's free valence

  ATOM       NA         ZA         QA         VA         BVA        FA
  0 C      0.0031     0.0000    -0.0031     0.0062     0.0062    -0.0000
  1 O      0.0031     0.0000    -0.0031     0.0062     0.0062     0.0000
  2 H      0.0001     0.0000    -0.0001     0.0003     0.0003     0.0000
  3 H     -0.0002     0.0000     0.0002    -0.0004    -0.0004    -0.0000
  4 H     -0.0001     0.0000     0.0001    -0.0003    -0.0003     0.0000
  5 H     -0.0002     0.0000     0.0002    -0.0004    -0.0004     0.0000
  6 C      6.1436     6.0000    -0.1436     3.9430     3.9430    -0.0000
  7 O      8.4634     8.0000    -0.4634     1.8895     1.8895    -0.0000
  8 H      0.6774     1.0000     0.3226     0.9095     0.9095    -0.0000
  9 H      0.9142     1.0000     0.0858     0.9591     0.9591    -0.0000
 10 H      0.9100     1.0000     0.0900     0.9596     0.9596    -0.0000
 11 H      0.8856     1.0000     0.1144     0.9591     0.9591    -0.0000

  Mayer bond orders larger than 0.1
B(  6-C ,  7-O ) :   1.0037 B(  6-C ,  9-H ) :   0.9738 B(  6-C , 10-H ) :   0.9861 
B(  6-C , 11-H ) :   0.9661 B(  7-O ,  8-H ) :   0.8890 

-------
TIMINGS
-------

Total SCF time: 0 days 0 hours 0 min 14 sec 

Total time                  ....      14.549 sec
Sum of individual times     ....      14.258 sec  ( 98.0%)

Fock matrix formation       ....      13.713 sec  ( 94.3%)
  XC integration            ....       5.633 sec  ( 41.1% of F)
    Basis function eval.    ....       0.062 sec  (  1.1% of XC)
    Density eval.           ....       0.085 sec  (  1.5% of XC)
    XC-Functional eval.     ....       0.087 sec  (  1.5% of XC)
    XC-Potential eval.      ....       0.066 sec  (  1.2% of XC)
Diagonalization             ....       0.061 sec  (  0.4%)
Density matrix formation    ....       0.006 sec  (  0.0%)
Population analysis         ....       0.014 sec  (  0.1%)
Initial guess               ....       0.100 sec  (  0.7%)
Orbital Transformation      ....       0.000 sec  (  0.0%)
Orbital Orthonormalization  ....       0.000 sec  (  0.0%)
DIIS solution               ....       0.040 sec  (  0.3%)
SOSCF solution              ....       0.028 sec  (  0.2%)
Grid generation             ....       0.295 sec  (  2.0%)


-------------------------------------------------------------------------------
                          DFT DISPERSION CORRECTION                            
                                                                               
                              DFTD3 V3.1  Rev 1                                
                              USING zero damping                               
-------------------------------------------------------------------------------
The omegaB97X-D3 functional is recognized. Fit by Chai et al.
Active option DFTDOPT                   ...         3   

molecular C6(AA) [au] = 208.844681 


            DFT-D V3
 parameters
 s6 scaling factor         :     1.0000 
 rs6 scaling factor        :     1.2810 
 s8 scaling factor         :     1.0000 
 rs8 scaling factor        :     1.0940 
 Damping factor alpha6     :    14.0000 
 Damping factor alpha8     :    16.0000 
 ad hoc parameters k1-k3   :    16.0000     1.3333    -4.0000 

 Edisp/kcal,au: -0.142902032218  -0.000227728860 
 E6   /kcal   :  -0.031153718 
 E8   /kcal   :  -0.111748314 
 % E8         :  78.199247821 

-------------------------   ----------------
Dispersion correction           -0.000227729
-------------------------   ----------------


-------------------------   --------------------
FINAL SINGLE POINT ENERGY      -115.730434718925
-------------------------   --------------------


                            ***************************************
                            *     ORCA property calculations      *
                            ***************************************

                                    ---------------------
                                    Active property flags
                                    ---------------------
   (+) Dipole Moment


------------------------------------------------------------------------------
                       ORCA ELECTRIC PROPERTIES CALCULATION
------------------------------------------------------------------------------

Dipole Moment Calculation                       ... on
Quadrupole Moment Calculation                   ... off
Polarizability Calculation                      ... off
GBWName                                         ... 20-138_DFT_B.gbw
Electron density file                           ... 20-138_DFT_B.scfp.tmp
The origin for moment calculation is the CENTER OF MASS  = (-2.837158,  6.914294 -15.978621)

-------------
DIPOLE MOMENT
-------------
                                X             Y             Z
Electronic contribution:     -0.01783       1.05441      -1.54340
Nuclear contribution   :     -0.52106      -1.24378       1.76482
                        -----------------------------------------
Total Dipole Moment    :     -0.53889      -0.18937       0.22142
                        -----------------------------------------
Magnitude (a.u.)       :      0.61261
Magnitude (Debye)      :      1.55713



--------------------
Rotational spectrum 
--------------------
 
Rotational constants in cm-1:     4.152061     0.888880     0.849708 
Rotational constants in MHz : 124475.646905 26647.964867 25473.592180 

 Dipole components along the rotational axes: 
x,y,z [a.u.] :     0.187122     0.576495     0.089054 
x,y,z [Debye]:     0.475625     1.465333     0.226358 

 
------------------------------------------------------------------------------
                      ORCA CHELPG CHARGES GENERATION
------------------------------------------------------------------------------

GBW file                           ... 20-138_DFT_B.gbw

Reading the GBW file               ... done

Grid spacing                       ...     0.300000
Point Cut-Off                      ...     2.800000
Van-der-Waals Radii                ...        COSMO
Total charge                       ...            0


Number of points X direction       ...           36
Number of points Y direction       ...           31
Number of points Z direction       ...           32
Maximum number of possible points  ...        35712
Final number of points             ...         6003


CHELPG Charges            
--------------------------------
  0   C   :       0.004807
  1   O   :       0.001240
  2   H   :       0.005052
  3   H   :      -0.000190
  4   H   :       0.004613
  5   H   :      -0.022283
  6   C   :       0.101741
  7   O   :      -0.585531
  8   H   :       0.407905
  9   H   :       0.001921
 10   H   :       0.006488
 11   H   :       0.074236
--------------------------------
Total charge:     0.000000
--------------------------------

CHELPG charges calculated...

Timings for individual parts in CHELPG calculation:
Grid generation                 ...        0.001 sec (=   0.000 min)
Potential calculation           ...        1.229 sec (=   0.020 min)
Fit to the potential            ...        0.002 sec (=   0.000 min)
------------------------------------------------------------------------------


Timings for individual modules:

Sum of individual times         ...       16.841 sec (=   0.281 min)
GTO integral calculation        ...        0.637 sec (=   0.011 min)   3.8 %
SCF iterations                  ...       14.943 sec (=   0.249 min)  88.7 %
CHELPG charge generation        ...        1.261 sec (=   0.021 min)   7.5 %



                             ****ORCA TERMINATED NORMALLY****
TOTAL RUN TIME: 0 days 0 hours 0 minutes 57 seconds 369 msec
