LAMMPS data file via vdw_self_gen.py, on 2021-08-05 13:22:16.854870

7500 atoms
9 atom types
7000 bonds
9 bond types
12500 angles
15 angle types
15000 dihedrals
12 dihedral types

-47.7305454730398679  47.7305454730398679 xlo xhi
-47.7305454730398679  47.7305454730398679 ylo yhi
-47.7305454730398679  47.7305454730398679 zlo zhi

Masses

1  32.066000
2  1.007940
3  1.007940
4  1.007940
5  1.007940
6  12.011000
7  12.011000
8  12.011000
9  12.011000

Atoms

1         0    7    0.0215950000000000   37.3661441095768510 -36.6616345408340720  14.3649791881223159 0 0 0
2         0    6    0.0158030000000000   37.1530160956236273 -37.5539567217447114  15.5878367248874223 0 0 0
3         0    9   -0.0058890000000000   37.0026664749847569 -36.7150302688012502  16.8620747609801498 0 0 0
4         0    5    0.0140440000000000   38.0241363577215594 -38.2371024870329705  15.6968244734243640 0 0 0
5         0    5    0.0140440000000000   36.2353314044034178 -38.1645589525252973  15.4379965491472539 0 0 0
6         0    8   -0.1079060000000000   36.7897803861926604 -37.6033621621654177  18.0843530072198710 0 0 0
7         0    5    0.0140440000000000   36.1314572308432673 -36.0317755481811730  16.7592468509907349 0 0 0
8         0    5    0.0140440000000000   37.9186986973308251 -36.1042569132482498  17.0178473024315871 0 0 0
9         0    4    0.0285690000000000   35.8668380477435136 -38.2099881637347991  17.9647892471670971 0 0 0
10        0    4    0.0285690000000000   36.6843079637204639 -36.9705663600745424  18.9906709128986719 0 0 0
11        0    4    0.0285690000000000   37.6576608640267025 -38.2826249188994794  18.2239130412862167 0 0 0
12        0    1   -0.3481560000000000   37.5397352796031072 -37.6918196695656178  12.8763133457220551 0 0 0
13        0    3    0.0496050000000000   38.2943622740857919 -36.0664320985099494  14.5027144328022963 0 0 0
14        0    3    0.0496050000000000   36.4871164346541477 -35.9931686390218459  14.2412512044873942 0 0 0
15        0    2    0.1834600000000000   37.7051122316211007 -36.5700864077924237  12.0419163236319076 0 0 0
16        1    7    0.0215950000000000   36.9776675081891284 -36.3725166895455132  27.9571970926685509 0 0 0
17        1    6    0.0158030000000000   37.3291627812197149 -36.6267830504381990  26.4913039618928003 0 0 0
18        1    9   -0.0058890000000000   36.9033045736465652 -38.0346317484408942  26.0592252594846592 0 0 0
19        1    5    0.0140440000000000   38.4276294938490324 -36.5158628871324709  26.3553459697864803 0 0 0
20        1    5    0.0140440000000000   36.8116973924674440 -35.8739700088801499  25.8565327819361386 0 0 0
21        1    8   -0.1079060000000000   37.2530323691530825 -38.2910818586519923  24.5962345005176459 0 0 0
22        1    5    0.0140440000000000   35.8052417700057788 -38.1500312615980377  26.1909718762292165 0 0 0
23        1    5    0.0140440000000000   37.4197619716590708 -38.7913614171787842  26.6893491944291945 0 0 0
24        1    4    0.0285690000000000   36.7316902509498320 -37.5611179232712971  23.9408962615670546 0 0 0
25        1    4    0.0285690000000000   36.9339700914191553 -39.3157582515920723  24.3112701906847306 0 0 0
26        1    4    0.0285690000000000   38.3494510463318790 -38.2037304675556371  24.4402625850744073 0 0 0
27        1    1   -0.3481560000000000   37.4975947053079963 -34.6953854203181820  28.4309562082283875 0 0 0
28        1    3    0.0496050000000000   37.5107011623320901 -37.1097920053152137  28.5952614610575786 0 0 0
29        1    3    0.0496050000000000   35.8781266839330470 -36.4612878255367860  28.0912664415484592 0 0 0
30        1    2    0.1834600000000000   37.0273320516679973 -34.8530530366765632  29.7484718235602656 0 0 0
31        2    7    0.0215950000000000  -26.8513488378274658  27.3157975423481787 -27.8990061797710034 0 0 0
32        2    6    0.0158030000000000  -27.0345278591453564  26.6647722105767677 -26.5280012769202038 0 0 0
33        2    9   -0.0058890000000000  -25.7213783262109139  26.0495417488078829 -26.0307941193231898 0 0 0
34        2    5    0.0140440000000000  -27.8091421159394159  25.8698915108732734 -26.6025291469439473 0 0 0
35        2    5    0.0140440000000000  -27.3792622435639110  27.4341520633069571 -25.8022980308116949 0 0 0
36        2    8   -0.1079060000000000  -25.9014359326959642  25.3989551052869302 -24.6623152453835814 0 0 0
37        2    5    0.0140440000000000  -24.9439857494152655  26.8406834129904333 -25.9522333903455618 0 0 0
38        2    5    0.0140440000000000  -25.3734914931083395  25.2777907757174418 -26.7517652670037407 0 0 0
39        2    4    0.0285690000000000  -26.2282600702437776  26.1539590416760923 -23.9158112616346763 0 0 0
40        2    4    0.0285690000000000  -24.9367460723218670  24.9626522224446283 -24.3276805596217685 0 0 0
41        2    4    0.0285690000000000  -26.6586329921970275  24.5879307407271881 -24.7169367866783531 0 0 0
42        2    1   -0.3481560000000000  -28.4280556028937781  28.0327921957816670 -28.4534930849742942 0 0 0
43        2    3    0.0496050000000000  -26.5279271193140751  26.5446400761212793 -28.6308124793997720 0 0 0
44        2    3    0.0496050000000000  -26.0936254062609478  28.1250043685522790 -27.8222960580154037 0 0 0
45        2    2    0.1834600000000000  -27.8667257875274785  28.4959825934545528 -29.6585727218383823 0 0 0
46        3    7    0.0215950000000000  -4.0824531429061830  -5.8236665853761327   14.9622471921409659 0 0 0
47        3    6    0.0158030000000000  -5.2930997333890959  -5.8414587765039325   15.8955538143112776 0 0 0
48        3    9   -0.0058890000000000  -5.7335838783471225  -4.4173112183913226   16.2531326521393673 0 0 0
49        3    5    0.0140440000000000  -5.0278063876255388  -6.3899575387402008   16.8262447004377407 0 0 0
50        3    5    0.0140440000000000  -6.1323338058523760  -6.3719356397339784   15.3938439138764700 0 0 0
51        3    8   -0.1079060000000000  -6.9420035940592371  -4.4321848364521896   17.1847542045757820 0 0 0
52        3    5    0.0140440000000000  -6.0022685115489791  -3.8651945556167062   15.3260987272111500 0 0 0
53        3    5    0.0140440000000000  -4.8987063492392204  -3.8832024275583596   16.7572472421341665 0 0 0
54        3    4    0.0285690000000000  -7.7998524468995507  -4.9417768890066300   16.6963645606910056 0 0 0
55        3    4    0.0285690000000000  -7.2385457106241464  -3.3897977528081409   17.4265372605479989 0 0 0
56        3    4    0.0285690000000000  -6.6940861579880844  -4.9598262036623355   18.1303878292426077 0 0 0
57        3    1   -0.3481560000000000  -3.5911134023982387  -7.5283189735293909   14.5618888788002998 0 0 0
58        3    3    0.0496050000000000  -3.2357635989029450  -5.3133404857776272   15.4697016177243505 0 0 0
59        3    3    0.0496050000000000  -4.3517078685640644  -5.2951367898896393   14.0225647579676345 0 0 0
60        3    2    0.1834600000000000  -2.5275845333883202  -7.0978004486865398   13.7461600133985460 0 0 0
61        4    7    0.0215950000000000   25.3269269909184622  16.3593313266331890  36.1029622225902358 0 0 0
62        4    6    0.0158030000000000   26.0445471722112813  15.7093802147086841  37.2860208887642131 0 0 0
63        4    9   -0.0058890000000000   27.5452561681520223  16.0211433289351071  37.2584266029357565 0 0 0
64        4    5    0.0140440000000000   25.8959504403287113  14.6078377308866934  37.2419738161134362 0 0 0
65        4    5    0.0140440000000000   25.6057433652873634  16.0925494400249143  38.2336837606757527 0 0 0
66        4    8   -0.1079060000000000   28.2640549034060840  15.3734978612853261  38.4383850247582615 0 0 0
67        4    5    0.0140440000000000   27.6994662626050463  17.1213701584901337  37.3046468333126171 0 0 0
68        4    5    0.0140440000000000   27.9894180333414511  15.6379557096919175  36.3138040884517039 0 0 0
69        4    4    0.0285690000000000   27.8540654087600466  15.7559535209573127  39.3974207077569432 0 0 0
70        4    4    0.0285690000000000   29.3468201286979067  15.6154273311228167  38.3930341292554900 0 0 0
71        4    4    0.0285690000000000   28.1445985532644229  14.2695593402910852  38.4046012731033031 0 0 0
72        4    1   -0.3481560000000000   23.5523578481424529  15.9671207205809615  36.1709069214810341 0 0 0
73        4    3    0.0496050000000000   25.7487681242397279  15.9617836115370491  35.1548948313357599 0 0 0
74        4    3    0.0496050000000000   25.4555872725211678  17.4617770478234746  36.1568592806468203 0 0 0
75        4    2    0.1834600000000000   23.2809849367894159  16.6980400222306464  34.9987434709504655 0 0 0
76        5    7    0.0215950000000000   16.9326136395936580 -26.5889087860330662 -4.0347655180664850  0 0 0
77        5    6    0.0158030000000000   16.0942585511283305 -26.0257389288603136 -5.1823906475039259  0 0 0
78        5    9   -0.0058890000000000   15.3189451475500036 -27.1392704009222214 -5.8958483978013376  0 0 0
79        5    5    0.0140440000000000   16.7660825068966126 -25.5195489372388238 -5.9102925927122723  0 0 0
80        5    5    0.0140440000000000   15.3769032268993584 -25.2783510208431252 -4.7771191227825085  0 0 0
81        5    8   -0.1079060000000000   14.4811822319390604 -26.5797964816198409 -7.0419550165971136  0 0 0
82        5    5    0.0140440000000000   14.6438344958449278 -27.6471578180886119 -5.1728739038954989  0 0 0
83        5    5    0.0140440000000000   16.0318002022675685 -27.8881434110371131 -6.3050562845594786  0 0 0
84        5    4    0.0285690000000000   13.7436331772342069 -25.8433853358716554 -6.6574642170689344  0 0 0
85        5    4    0.0285690000000000   13.9317377091981349 -27.4065132628000825 -7.5395664969158300  0 0 0
86        5    4    0.0285690000000000   15.1343772496767581 -26.0848454670225216 -7.7919224702587613  0 0 0
87        5    1   -0.3481560000000000   17.8355897956817167 -25.2398407316951463 -3.2148931314102818  0 0 0
88        5    3    0.0496050000000000   17.6649444674796854 -27.3198537292484964 -4.4400271057053278  0 0 0
89        5    3    0.0496050000000000   16.2614262821129039 -27.0761511858990076 -3.2952066603473109  0 0 0
90        5    2    0.1834600000000000   18.4353986816964266 -26.1170401114855224 -2.2915275561080675  0 0 0
91        6    7    0.0215950000000000  -14.5393943409166297 -16.6519451670774998 -5.7836948295933599  0 0 0
92        6    6    0.0158030000000000  -15.6903479312556122 -16.1820453526824650 -4.8940078186635025  0 0 0
93        6    9   -0.0058890000000000  -16.6674457288787465 -15.2988822115159664 -5.6784744747203160  0 0 0
94        6    5    0.0140440000000000  -15.2769203763064247 -15.6043002415649550 -4.0380257975973137  0 0 0
95        6    5    0.0140440000000000  -16.2316138129731904 -17.0699657954705373 -4.4989623939747592  0 0 0
96        6    8   -0.1079060000000000  -17.8174082900026178 -14.8284139916208968 -4.7926619026249604  0 0 0
97        6    5    0.0140440000000000  -17.0855762098312063 -15.8726513970584389 -6.5342618092961402  0 0 0
98        6    5    0.0140440000000000  -16.1317163936459131 -14.4082679454053242 -6.0737269475413918  0 0 0
99        6    4    0.0285690000000000  -18.3845669446397224 -15.6996609993547551 -4.4010334172143297  0 0 0
100       6    4    0.0285690000000000  -18.5078451447603278 -14.1922204019258853 -5.3855546173915227  0 0 0
101       6    4    0.0285690000000000  -17.4288006441226280 -14.2323417509052526 -3.9395655417067781  0 0 0
102       6    1   -0.3481560000000000  -13.4041817215076069 -17.6948899375251898 -4.8187597029499551  0 0 0
103       6    3    0.0496050000000000  -13.9836927347607052 -15.7671751142639067 -6.1621173242470952  0 0 0
104       6    3    0.0496050000000000  -14.9482558526418270 -17.2479341616281197 -6.6277767638298055  0 0 0
105       6    2    0.1834600000000000  -12.5549612389561744 -17.9020328972001330 -5.9222857803818547  0 0 0
106       7    7    0.0215950000000000   14.4568598075095949  26.6649227336102115 -25.7917627423950648 0 0 0
107       7    6    0.0158030000000000   15.7032364936258162  27.0053973708786756 -26.6088705429837269 0 0 0
108       7    9   -0.0058890000000000   16.6788114560617515  25.8233864441614571 -26.6433500483345007 0 0 0
109       7    5    0.0140440000000000   16.2075726459669376  27.8865658965304313 -26.1543333587595157 0 0 0
110       7    5    0.0140440000000000   15.3990904284894476  27.2628411318647998 -27.6474514189829748 0 0 0
111       7    8   -0.1079060000000000   17.9239447181111657  26.1605987317516728 -27.4584262310538563 0 0 0
112       7    5    0.0140440000000000   16.1801592982708513  24.9402176216516231 -27.0991734745392918 0 0 0
113       7    5    0.0140440000000000   16.9879339510333764  25.5633986972565133 -25.6073607320470238 0 0 0
114       7    4    0.0285690000000000   17.6455730681928031  26.4034514163772194 -28.5061117548117657 0 0 0
115       7    4    0.0285690000000000   18.6112395583126045  25.2885142739590520 -27.4662751997146977 0 0 0
116       7    4    0.0285690000000000   18.4549731468115397  27.0278886485345069 -27.0113150281536818 0 0 0
117       7    1   -0.3481560000000000   13.3262582881124629  28.0893483278954186 -25.7746392269226661 0 0 0
118       7    3    0.0496050000000000   14.7560060106930759  26.4285202105484913 -24.7479949032129234 0 0 0
119       7    3    0.0496050000000000   13.9392252417819442  25.7983800851660341 -26.2565242122818354 0 0 0
120       7    2    0.1834600000000000   12.3818432522259823  27.4111140184794877 -24.9809567344720342 0 0 0
121       8    7    0.0215950000000000   36.8951995857369113  5.0427391612028156   3.7097250772687440  0 0 0
122       8    6    0.0158030000000000   37.5385003832659834  5.0295320964686674   5.0964596003262566  0 0 0
123       8    9   -0.0058890000000000   36.6557329594356673  5.7531186069095668   6.1198018753408059  0 0 0
124       8    5    0.0140440000000000   38.5293680170432609  5.5323071008195415   5.0433973318804792  0 0 0
125       8    5    0.0140440000000000   37.6883300922432980  3.9754316260386875   5.4187259677105226  0 0 0
126       8    8   -0.1079060000000000   37.2955947483639392  5.7414019645446235   7.5050302904988273  0 0 0
127       8    5    0.0140440000000000   35.6644152964783956  5.2528554644522263   6.1784723006642883  0 0 0
128       8    5    0.0140440000000000   36.5047192918699466  6.8083691790790546   5.8034708603512817  0 0 0
129       8    4    0.0285690000000000   37.4380030758785267  4.6969844486342058   7.8557796017084174  0 0 0
130       8    4    0.0285690000000000   36.6360183472989149  6.2711121145754714   8.2242890987955484  0 0 0
131       8    4    0.0285690000000000   38.2799997392520268  6.2556134022775023   7.4800336743416747  0 0 0
132       8    1   -0.3481560000000000   37.9704845959221373  4.1764857766167811   2.5261252696208198  0 0 0
133       8    3    0.0496050000000000   36.7644303056981840  6.0946393979404405   3.3762116693681357  0 0 0
134       8    3    0.0496050000000000   35.9147454246418505  4.5217169159347064   3.7554458277784990  0 0 0
135       8    2    0.1834600000000000   37.0808219890027928  4.3986018662388311   1.4579406760788149  0 0 0
136       9    7    0.0215950000000000  -37.9911993926211977  6.1256658539769688  -6.4130667516407973  0 0 0
137       9    6    0.0158030000000000  -37.3887538307107334  4.9624928327599598  -5.6249482023430017  0 0 0
138       9    9   -0.0058890000000000  -36.4786081999819345  5.4716127982359906  -4.5013303998323053  0 0 0
139       9    5    0.0140440000000000  -36.7981019539872420  4.3212454861756804  -6.3158528108249943  0 0 0
140       9    5    0.0140440000000000  -38.2108478488952770  4.3546411615834248  -5.1866445106940811  0 0 0
141       9    8   -0.1079060000000000  -35.8758810277154794  4.3124622085995838  -3.7129726021558644  0 0 0
142       9    5    0.0140440000000000  -37.0649378807425194  6.1115243711915692  -3.8062427624392150  0 0 0
143       9    5    0.0140440000000000  -35.6534278292428013  6.0781569752534734  -4.9344651663576791  0 0 0
144       9    4    0.0285690000000000  -36.6796160883704161  3.7011231108936387  -3.2499524962316482  0 0 0
145       9    4    0.0285690000000000  -35.2227640005497946  4.7097080869252466  -2.9076149386425989  0 0 0
146       9    4    0.0285690000000000  -35.2652752769510869  3.6676777977169825  -4.3804342866114103  0 0 0
147       9    1   -0.3481560000000000  -39.0625192268495738  5.4821324505480860  -7.7343085370684772  0 0 0
148       9    3    0.0496050000000000  -37.1724240602240599  6.7219628795385926  -6.8700817604362596  0 0 0
149       9    3    0.0496050000000000  -38.5997143180003235  6.7556680263379292  -5.7292160533803340  0 0 0
150       9    2    0.1834600000000000  -39.3922929172893461  6.7748350819959526  -8.1837778430744681  0 0 0
151       10   7    0.0215950000000000   37.8296979998823346 -16.8620618303387495 -4.1828883785049626  0 0 0
152       10   6    0.0158030000000000   37.4877886037827110 -15.6307368731575256 -5.0219234163796820  0 0 0
153       10   9   -0.0058890000000000   36.4035806522662213 -15.9532854557152923 -6.0565927859168296  0 0 0
154       10   5    0.0140440000000000   38.4045901366813780 -15.2804462357946740 -5.5455534342841144  0 0 0
155       10   5    0.0140440000000000   37.1271204916323327 -14.8206746615925855 -4.3502463501697433  0 0 0
156       10   8   -0.1079060000000000   36.0603621276503929 -14.7257810878111393 -6.8955517967968332  0 0 0
157       10   5    0.0140440000000000   35.4837717944160431 -16.3018209673935495 -5.5380459688216597  0 0 0
158       10   5    0.0140440000000000   36.7601260125186542 -16.7611899462609237 -6.7323071850076310  0 0 0
159       10   4    0.0285690000000000   35.6797067203714775 -13.9085485586770776 -6.2464403943130593  0 0 0
160       10   4    0.0285690000000000   35.2743501649079008 -14.9879677530422484 -7.6347476113146744  0 0 0
161       10   4    0.0285690000000000   36.9586206258863967 -14.3688274426570484 -7.4430983109470219  0 0 0
162       10   1   -0.3481560000000000   39.1169468946446486 -16.4397601884226638 -2.9695488175129956  0 0 0
163       10   3    0.0496050000000000   38.2109113775700635 -17.6654765495922632 -4.8492419299014440  0 0 0
164       10   3    0.0496050000000000   36.9202691168409913 -17.2009304375110084 -3.6416378793242932  0 0 0
165       10   2    0.1834600000000000   39.1385211330802818 -17.7452193772325622 -2.4430848625381754  0 0 0
166       11   7    0.0215950000000000   15.1593222483517600 -4.7417396236746407  -25.1825355766248116 0 0 0
167       11   6    0.0158030000000000   16.2660668422314565 -5.0770050920633292  -26.1824137940713975 0 0 0
168       11   9   -0.0058890000000000   15.6978783500270183 -5.7933507300230058  -27.4128998520186613 0 0 0
169       11   5    0.0140440000000000   17.0172503591135538 -5.7321588256491882  -25.6885374063657643 0 0 0
170       11   5    0.0140440000000000   16.7660681223583268 -4.1360230094960482  -26.5017628118541744 0 0 0
171       11   8   -0.1079060000000000   16.8006262327912523 -6.1291945515955835  -28.4126869220343359 0 0 0
172       11   5    0.0140440000000000   14.9478458766416900 -5.1414957920186479  -27.9118513206674947 0 0 0
173       11   5    0.0140440000000000   15.1988095212946455 -6.7362356277366668  -27.0993355320599463 0 0 0
174       11   4    0.0285690000000000   17.3025834867073840 -5.2010703549702306  -28.7601600137687932 0 0 0
175       11   4    0.0285690000000000   16.3613618282581399 -6.6461958439568978  -29.2917338785769950 0 0 0
176       11   4    0.0285690000000000   17.5540609858037726 -6.7990068317714849  -27.9460189438329820 0 0 0
177       11   1   -0.3481560000000000   15.8718682995859641 -3.8944329594469265  -23.7396596894724041 0 0 0
178       11   3    0.0496050000000000   14.6726193435935279 -5.6820939193952107  -24.8453709478160327 0 0 0
179       11   3    0.0496050000000000   14.4188816828530033 -4.0695165319813125  -25.6670031328741004 0 0 0
180       11   2    0.1834600000000000   14.6174841855878892 -3.7713894279539470  -23.1125757866276516 0 0 0
181       12   7    0.0215950000000000   5.6918863271841618  -6.6908950337109250   16.6742986411340333 0 0 0
182       12   6    0.0158030000000000   5.4721423969593133  -5.6720269135459427   15.5559680375374061 0 0 0
183       12   9   -0.0058890000000000   4.9484306132713201  -4.3444580410036551   16.1157644565891403 0 0 0
184       12   5    0.0140440000000000   4.7363065790322638  -6.0815847828614924   14.8291771613306747 0 0 0
185       12   5    0.0140440000000000   6.4358763423927918  -5.4954717978378937   15.0292066792958110 0 0 0
186       12   8   -0.1079060000000000   4.7281996216858753  -3.3255346028468984   15.0014433680692729 0 0 0
187       12   5    0.0140440000000000   5.6816797704087385  -3.9294331505029745   16.8413787847429965 0 0 0
188       12   5    0.0140440000000000   3.9835961968421145  -4.5150351526414338   16.6415231529118977 0 0 0
189       12   4    0.0285690000000000   5.6830761233135867  -3.1193697433021237   14.4724631454445607 0 0 0
190       12   4    0.0285690000000000   4.3496862197836128  -2.3758585378267338   15.4348139731040401 0 0 0
191       12   4    0.0285690000000000   3.9815889654652641  -3.7061423889187717   14.2721960432203474 0 0 0
192       12   1   -0.3481560000000000   6.3120987678106566  -8.2493828193988641   15.9714518338896454 0 0 0
193       12   3    0.0496050000000000   4.7259645719564043  -6.8853916257529075   17.1881002997161865 0 0 0
194       12   3    0.0496050000000000   6.4430447407240790  -6.2932121291112564   17.3901577573415302 0 0 0
195       12   2    0.1834600000000000   6.3773318849029197  -8.8671124024712604   17.2347840308717508 0 0 0
196       13   7    0.0215950000000000  -26.7247087302561859 -28.1211844916424489  15.7020963891601966 0 0 0
197       13   6    0.0158030000000000  -27.0326251970342177 -26.6270805446944792  15.8015138187256881 0 0 0
198       13   9   -0.0058890000000000  -25.7671001267951851 -25.8244376637035309  16.1244625401832096 0 0 0
199       13   5    0.0140440000000000  -27.7875597457024384 -26.4629843548290040  16.6018657692441778 0 0 0
200       13   5    0.0140440000000000  -27.4544984887446084 -26.2766887534586076  14.8336910697804321 0 0 0
201       13   8   -0.1079060000000000  -26.0716702187962959 -24.3325618899569207  16.2242717860794983 0 0 0
202       13   5    0.0140440000000000  -25.0097498493770942 -25.9831684303426727  15.3259381257681575 0 0 0
203       13   5    0.0140440000000000  -25.3425215821170831 -26.1693017778987382  17.0925668791050818 0 0 0
204       13   4    0.0285690000000000  -26.4775746690310569 -23.9560374308005031  15.2611601271652422 0 0 0
205       13   4    0.0285690000000000  -25.1391729670476884 -23.7770658745270396  16.4584515408040062 0 0 0
206       13   4    0.0285690000000000  -26.8110204886289871 -24.1425350306201913  17.0313296469723632 0 0 0
207       13   1   -0.3481560000000000  -28.2481106109605022 -29.0375311066147539  15.3185642846430454 0 0 0
208       13   3    0.0496050000000000  -26.3234358403394992 -28.4783619155612513  16.6748400663746139 0 0 0
209       13   3    0.0496050000000000  -25.9869540140140245 -28.2901053130036040  14.8884449503529321 0 0 0
210       13   2    0.1834600000000000  -27.5778430798207488 -30.2755010310118102  15.3135303708407093 0 0 0
211       14   7    0.0215950000000000  -15.9157885536827894  37.9391200252404559 -27.9294543225647161 0 0 0
212       14   6    0.0158030000000000  -15.6222546020080415  37.5765848944493399 -26.4736215443046383 0 0 0
213       14   9   -0.0058890000000000  -16.2875383726600624  36.2492726726438903 -26.0918821766034377 0 0 0
214       14   5    0.0140440000000000  -16.0056257862179585  38.3847563112393146 -25.8123330496208325 0 0 0
215       14   5    0.0140440000000000  -14.5219673535544462  37.4910704914585864 -26.3340235043056943 0 0 0
216       14   8   -0.1079060000000000  -15.9960992823900412  35.8849919324654962 -24.6390294828324308 0 0 0
217       14   5    0.0140440000000000  -15.9058627687990768  35.4372540642919347 -26.7486665038430012 0 0 0
218       14   5    0.0140440000000000  -17.3882234401265166  36.3301602154291459 -26.2274321547609617 0 0 0
219       14   4    0.0285690000000000  -14.9020170068594755  35.7759203476716579 -24.4802827588964611 0 0 0
220       14   4    0.0285690000000000  -16.4891125919923027  34.9215457195595107 -24.3906821925469259 0 0 0
221       14   4    0.0285690000000000  -16.3873442864213814  36.6706183002200703 -23.9579935243770095 0 0 0
222       14   1   -0.3481560000000000  -15.1110289974716760  39.5166634618309445 -28.3432900948913229 0 0 0
223       14   3    0.0496050000000000  -17.0132967941715094  38.0465438935313571 -28.0664276063859148 0 0 0
224       14   3    0.0496050000000000  -15.5143379888544377  37.1436406581013472 -28.5934535315664782 0 0 0
225       14   2    0.1834600000000000  -15.5922295399896154  39.4882208639987837 -29.6659731611657058 0 0 0
226       15   7    0.0215950000000000   28.0019816631189862 -37.5832621638413542  4.8098808593943687  0 0 0
227       15   6    0.0158030000000000   26.4795717693495583 -37.5036939052166929  4.9238106082415598  0 0 0
228       15   9   -0.0058890000000000   26.0593434260858210 -36.4667523629652592  5.9717827223605564  0 0 0
229       15   5    0.0140440000000000   26.0830557536741914 -38.5019168268502057  5.2131944796621799  0 0 0
230       15   5    0.0140440000000000   26.0543117825051453 -37.2220302992775416  3.9352500831959567  0 0 0
231       15   8   -0.1079060000000000   24.5400063067313674 -36.3852947357743730  6.0875303941477075  0 0 0
232       15   5    0.0140440000000000   26.4513456563650351 -35.4662384115565530  5.6859117306655582  0 0 0
233       15   5    0.0140440000000000   26.4800646218558384 -36.7450074093229802  6.9627378240207110  0 0 0
234       15   4    0.0285690000000000   24.0940852507912915 -36.0868283837871360  5.1148097727971065  0 0 0
235       15   4    0.0285690000000000   24.2649140949945945 -35.6282870803048084  6.8518803073433965  0 0 0
236       15   4    0.0285690000000000   24.1228513142093632 -37.3681638051905125  6.3941922995077309  0 0 0
237       15   1   -0.3481560000000000   28.4599001466506465 -38.8216935934951266  3.5592252151078307  0 0 0
238       15   3    0.0496050000000000   28.4277453773473390 -37.8857751691030842  5.7907157319361158  0 0 0
239       15   3    0.0496050000000000   28.3986623713578226 -36.5926985543422418  4.4996018231266541  0 0 0
240       15   2    0.1834600000000000   29.8367060736285445 -38.5987211511039661  3.7503852702256686  0 0 0
241       16   7    0.0215950000000000  -15.6311282200069179 -16.8061872719649088  17.2440721677569684 0 0 0
242       16   6    0.0158030000000000  -15.5258570856878730 -16.2748408275830165  15.8145156195848156 0 0 0
243       16   9   -0.0058890000000000  -16.5116114039762536 -15.1242952374444517  15.5808097285839295 0 0 0
244       16   5    0.0140440000000000  -15.7465392983761632 -17.0999326178468856  15.1018166118387942 0 0 0
245       16   5    0.0140440000000000  -14.4889578622950239 -15.9141391652060129  15.6351649399491723 0 0 0
246       16   8   -0.1079060000000000  -16.4085972156206417 -14.5919938748894324  14.1544642279356783 0 0 0
247       16   5    0.0140440000000000  -16.2937770686443564 -14.2955567513870587  16.2894400013481047 0 0 0
248       16   5    0.0140440000000000  -17.5502580204146099 -15.4803149441381453  15.7565577968716521 0 0 0
249       16   4    0.0285690000000000  -15.3845516635978203 -14.2085805020454607  13.9584079821625142 0 0 0
250       16   4    0.0285690000000000  -17.1320858347835987 -13.7614731957924654  14.0138700433688879 0 0 0
251       16   4    0.0285690000000000  -16.6435467663684413 -15.3957135289994405  13.4244472104623078 0 0 0
252       16   1   -0.3481560000000000  -14.4484540745973131 -18.1672268254043132  17.4815473956295406 0 0 0
253       16   3    0.0496050000000000  -16.6602723573164866 -17.1872042598100911  17.4187556114908233 0 0 0
254       16   3    0.0496050000000000  -15.3897251070399950 -15.9891776979235747  17.9575599546704332 0 0 0
255       16   2    0.1834600000000000  -14.8373653864738309 -18.3560906647641140  18.8212980735456838 0 0 0
256       17   7    0.0215950000000000  -3.9396320146636974  -26.5238799405716250 -27.4114336697529453 0 0 0
257       17   6    0.0158030000000000  -5.3432366683196246  -26.8745154583807881 -26.9174785199811240 0 0 0
258       17   9   -0.0058890000000000  -5.7163524553540812  -26.0439295771593748 -25.6841914982861290 0 0 0
259       17   5    0.0140440000000000  -5.3789446062318769  -27.9557290137189085 -26.6584048472099369 0 0 0
260       17   5    0.0140440000000000  -6.0758924385813717  -26.6765223913854861 -27.7307722078479095 0 0 0
261       17   8   -0.1079060000000000  -7.1170966083919414  -26.3919841210607267 -25.1890228371211933 0 0 0
262       17   5    0.0140440000000000  -5.6844767535134491  -24.9619292645307738 -25.9385050891612465 0 0 0
263       17   5    0.0140440000000000  -4.9881380378931981  -26.2400188116314688 -24.8670764615708393 0 0 0
264       17   4    0.0285690000000000  -7.8689700283031048  -26.1843169943901692 -25.9800183387085717 0 0 0
265       17   4    0.0285690000000000  -7.3602439223442166  -25.7768119740487762 -24.2971653830073038 0 0 0
266       17   4    0.0285690000000000  -7.1712452230904118  -27.4649742411331488 -24.9064426726488364 0 0 0
267       17   1   -0.3481560000000000  -3.5345926006150590  -27.5280819600068831 -28.8726190314813209 0 0 0
268       17   3    0.0496050000000000  -3.2032651166301243  -26.7413884375711177 -26.6081406029875041 0 0 0
269       17   3    0.0496050000000000  -3.9074350709619936  -25.4490106202628539 -27.6915483430123608 0 0 0
270       17   2    0.1834600000000000  -2.2613875768389784  -26.9414528028135081 -29.0017261058883591 0 0 0
271       18   7    0.0215950000000000  -36.7229720356563547  27.1651062140379089  17.3521423412738365 0 0 0