
                                 *****************
                                 * O   R   C   A *
                                 *****************

           --- An Ab Initio, DFT and Semiempirical electronic structure package ---

                  #######################################################
                  #                        -***-                        #
                  #          Department of theory and spectroscopy      #
                  #               Directorship: Frank Neese             #
                  #        Max Planck Institute fuer Kohlenforschung    #
                  #                Kaiser Wilhelm Platz 1               #
                  #                 D-45470 Muelheim/Ruhr               #
                  #                      Germany                        #
                  #                                                     #
                  #                  All rights reserved                #
                  #                        -***-                        #
                  #######################################################


                         Program Version 4.1.2  - RELEASE  -


 With contributions from (in alphabetic order):
   Daniel Aravena         : Magnetic Properties
   Michael Atanasov       : Ab Initio Ligand Field Theory
   Alexander A. Auer      : GIAO ZORA
   Ute Becker             : Parallelization
   Giovanni Bistoni       : ED, Open-shell LED
   Martin Brehm           : Molecular dynamics
   Dmytro Bykov           : SCF Hessian
   Vijay G. Chilkuri      : MRCI spin determinant printing
   Dipayan Datta          : RHF DLPNO-CCSD density
   Achintya Kumar Dutta   : EOM-CC, STEOM-CC
   Dmitry Ganyushin       : Spin-Orbit,Spin-Spin,Magnetic field MRCI
   Miquel Garcia          : C-PCM Hessian
   Yang Guo               : DLPNO-NEVPT2, CIM, IAO-localization
   Andreas Hansen         : Spin unrestricted coupled pair/coupled cluster methods
   Benjamin Helmich-Paris : CASSCF linear response (MC-RPA)
   Lee Huntington         : MR-EOM, pCC
   Robert Izsak           : Overlap fitted RIJCOSX, COSX-SCS-MP3, EOM
   Christian Kollmar      : KDIIS, OOCD, Brueckner-CCSD(T), CCSD density
   Simone Kossmann        : Meta GGA functionals, TD-DFT gradient, OOMP2, MP2 Hessian
   Martin Krupicka        : AUTO-CI
   Lucas Lang             : DCDCAS
   Dagmar Lenk            : GEPOL surface, SMD
   Dimitrios Liakos       : Extrapolation schemes; parallel MDCI
   Dimitrios Manganas     : ROCIS; embedding schemes
   Dimitrios Pantazis     : SARC Basis sets
   Taras Petrenko         : DFT Hessian,TD-DFT gradient, ASA, ECA, R-Raman, ABS, FL, XAS/XES, NRVS
   Peter Pinski           : DLPNO-MP2, DLPNO-MP2 Gradient
   Christoph Reimann      : Effective Core Potentials
   Marius Retegan         : Local ZFS, SOC
   Christoph Riplinger    : Optimizer, TS searches, QM/MM, DLPNO-CCSD(T), (RO)-DLPNO pert. Triples
   Tobias Risthaus        : Range-separated hybrids, TD-DFT gradient, RPA, STAB
   Michael Roemelt        : Restricted open shell CIS
   Masaaki Saitow         : Open-shell DLPNO
   Barbara Sandhoefer     : DKH picture change effects
   Avijit Sen             : IP-ROCIS
   Kantharuban Sivalingam : CASSCF convergence, NEVPT2, FIC-MRCI
   Bernardo de Souza      : ESD, SOC TD-DFT
   Georgi Stoychev        : AutoAux, RI-MP2 NMR
   Willem Van den Heuvel  : Paramagnetic NMR
   Boris Wezisla          : Elementary symmetry handling
   Frank Wennmohs         : Technical directorship


 We gratefully acknowledge several colleagues who have allowed us to
 interface, adapt or use parts of their codes:
   Stefan Grimme, W. Hujo, H. Kruse,             : VdW corrections, initial TS optimization,
                  C. Bannwarth                     DFT functionals, gCP, sTDA/sTD-DF
   Ed Valeev                                     : LibInt (2-el integral package), F12 methods
   Garnet Chan, S. Sharma, J. Yang, R. Olivares  : DMRG
   Ulf Ekstrom                                   : XCFun DFT Library
   Mihaly Kallay                                 : mrcc  (arbitrary order and MRCC methods)
   Andreas Klamt, Michael Diedenhofen            : otool_cosmo (COSMO solvation model)
   Jiri Pittner, Ondrej Demel                    : Mk-CCSD
   Frank Weinhold                                : gennbo (NPA and NBO analysis)
   Christopher J. Cramer and Donald G. Truhlar   : smd solvation model
   Lars Goerigk                                  : TD-DFT with DH, B97 family of functionals
   V. Asgeirsson, H. Jonsson                     : NEB implementation
   FAccTs GmbH                                   : IRC, NEB, NEB-TS, Multilevel


 Your calculation uses the libint2 library for the computation of 2-el integrals
 For citations please refer to: http://libint.valeyev.net

 This ORCA versions uses:
   CBLAS   interface :  Fast vector & matrix operations
   LAPACKE interface :  Fast linear algebra routines
   SCALAPACK package :  Parallel linear algebra routines


Your calculation utilizes the atom-pairwise dispersion correction
with the zero-damping scheme (D30)
Cite in your paper:
S.Grimme, J.Antony, S.Ehrlich and H.Krieg, J.Chem.Phys., 132, (2010), 154104 
   

XCFun DFT library Copyright 2009-2010 Ulf Ekstrom and contributors.
See http://admol.org/xcfun for more information. This is free soft-
ware; see the source code for copying conditions. There is ABSOLUTELY
NO WARRANTY; not even for MERCHANTABILITY or FITNESS FOR A PARTICULAR
PURPOSE. For details see the documentation. Scientific users of this 
library should cite U. Ekstrom, L. Visscher, R. Bast, A. J. Thorvald-
sen and K. Ruud; J.Chem.Theor.Comp. 2010, DOI: 10.1021/ct100117s
XCFun Version 0.99 
----- Orbital basis set information -----
Your calculation utilizes the basis: def2-TZVP
   F. Weigend and R. Ahlrichs, Phys. Chem. Chem. Phys. 7, 3297 (2005).

================================================================================
                                        WARNINGS
                       Please study these warnings very carefully!
================================================================================


INFO   : the flag for use of LIBINT has been found!

Your calculation utilizes the atom-pairwise dispersion correction
with the zero-damping scheme (D30)
Cite in your paper:
S.Grimme, J.Antony, S.Ehrlich and H.Krieg, J.Chem.Phys., 132, (2010), 154104 
   

XCFun DFT library Copyright 2009-2010 Ulf Ekstrom and contributors.
See http://admol.org/xcfun for more information. This is free soft-
ware; see the source code for copying conditions. There is ABSOLUTELY
NO WARRANTY; not even for MERCHANTABILITY or FITNESS FOR A PARTICULAR
PURPOSE. For details see the documentation. Scientific users of this 
library should cite U. Ekstrom, L. Visscher, R. Bast, A. J. Thorvald-
sen and K. Ruud; J.Chem.Theor.Comp. 2010, DOI: 10.1021/ct100117s
XCFun Version 0.99 
----- Orbital basis set information -----
Your calculation utilizes the basis: def2-TZVP
   F. Weigend and R. Ahlrichs, Phys. Chem. Chem. Phys. 7, 3297 (2005).

================================================================================
                                        WARNINGS
                       Please study these warnings very carefully!
================================================================================


WARNING: MOInp is set but Guess=PModel. MOInp will be ignored!
         To read the initial guess from a file you must also specify
         'MORead' in the simple input or 'Guess MORead' in the %scf block


INFO   : the flag for use of LIBINT has been found!

Your calculation utilizes the atom-pairwise dispersion correction
with the zero-damping scheme (D30)
Cite in your paper:
S.Grimme, J.Antony, S.Ehrlich and H.Krieg, J.Chem.Phys., 132, (2010), 154104 
   

XCFun DFT library Copyright 2009-2010 Ulf Ekstrom and contributors.
See http://admol.org/xcfun for more information. This is free soft-
ware; see the source code for copying conditions. There is ABSOLUTELY
NO WARRANTY; not even for MERCHANTABILITY or FITNESS FOR A PARTICULAR
PURPOSE. For details see the documentation. Scientific users of this 
library should cite U. Ekstrom, L. Visscher, R. Bast, A. J. Thorvald-
sen and K. Ruud; J.Chem.Theor.Comp. 2010, DOI: 10.1021/ct100117s
XCFun Version 0.99 
----- Orbital basis set information -----
Your calculation utilizes the basis: def2-TZVP
   F. Weigend and R. Ahlrichs, Phys. Chem. Chem. Phys. 7, 3297 (2005).

================================================================================
                                        WARNINGS
                       Please study these warnings very carefully!
================================================================================


WARNING: MOInp is set but Guess=PModel. MOInp will be ignored!
         To read the initial guess from a file you must also specify
         'MORead' in the simple input or 'Guess MORead' in the %scf block


INFO   : the flag for use of LIBINT has been found!

================================================================================
                                       INPUT FILE
================================================================================
NAME = 17-80.in
|  1> #Run DFT-D3 single point of the dimer
|  2> ! wB97X-D3 def2-TZVP TIGHTSCF CHELPG PMODEL PAL8
|  3> 
|  4> %base "17-80_DFT_AB"
|  5> 
|  6> %scf
|  7> MaxIter 1000
|  8> end
|  9> 
| 10> * xyz 0 1
| 11>   C                      -1.143472            3.251015             -8.383428           
| 12>   O                      -1.942154            2.903486             -9.464382           
| 13>   H                      -1.698939            3.509440             -10.183064          
| 14>   H                      -1.426148            2.504044             -7.571571           
| 15>   H                      -0.084644            3.152513             -8.594473           
| 16>   H                      -1.392792            4.268874             -8.070492           
| 17>   C                      0.647769             0.124529             -6.481577           
| 18>   O                      -0.226637            -0.471103            -5.579255           
| 19>   H                      -1.142298            -0.269324            -5.796997           
| 20>   H                      0.812610             1.142135             -6.183510           
| 21>   H                      1.646017             -0.430610            -6.555215           
| 22>   H                      0.176068             0.014633             -7.407592           
| 23> *
| 24> 
| 25> #Run DFT-D3 single point of the molecule with dimer basis set
| 26> $new_job
| 27> %base "17-80_DFT_A"
| 28> ! wB97X-D3 def2-TZVP TIGHTSCF CHELPG PMODEL
| 29> 
| 30> %scf
| 31> MaxIter 1000
| 32> end
| 33> 
| 34> * xyz 0 1
| 35>   C                      -1.143472            3.251015             -8.383428           
| 36>   O                      -1.942154            2.903486             -9.464382           
| 37>   H                      -1.698939            3.509440             -10.183064          
| 38>   H                      -1.426148            2.504044             -7.571571           
| 39>   H                      -0.084644            3.152513             -8.594473           
| 40>   H                      -1.392792            4.268874             -8.070492           
| 41>   C                    : 0.647769             0.124529             -6.481577           
| 42>   O                    : -0.226637            -0.471103            -5.579255           
| 43>   H                    : -1.142298            -0.269324            -5.796997           
| 44>   H                    : 0.812610             1.142135             -6.183510           
| 45>   H                    : 1.646017             -0.430610            -6.555215           
| 46>   H                    : 0.176068             0.014633             -7.407592           
| 47> *
| 48> 
| 49> #Run DFT-D3 single point of the particle with dimer basis set
| 50> $new_job
| 51> %base "17-80_DFT_B"
| 52> ! wB97X-D3 def2-TZVP TIGHTSCF CHELPG PMODEL
| 53> 
| 54> %scf
| 55> MaxIter 1000
| 56> end
| 57> 
| 58> * xyz 0 1
| 59>   C                    : -1.143472            3.251015             -8.383428           
| 60>   O                    : -1.942154            2.903486             -9.464382           
| 61>   H                    : -1.698939            3.509440             -10.183064          
| 62>   H                    : -1.426148            2.504044             -7.571571           
| 63>   H                    : -0.084644            3.152513             -8.594473           
| 64>   H                    : -1.392792            4.268874             -8.070492           
| 65>   C                      0.647769             0.124529             -6.481577           
| 66>   O                      -0.226637            -0.471103            -5.579255           
| 67>   H                      -1.142298            -0.269324            -5.796997           
| 68>   H                      0.812610             1.142135             -6.183510           
| 69>   H                      1.646017             -0.430610            -6.555215           
| 70>   H                      0.176068             0.014633             -7.407592           
| 71> *
| 72> 
| 73>                          ****END OF INPUT****
================================================================================


                 $$$$$$$$$$$$$$$$$$$$$$$$$$$$$$$$$$$$$$$$$$$$$$ 
                 $ THERE ARE  3 JOBS TO BE PROCESSED THIS RUN $
                 $$$$$$$$$$$$$$$$$$$$$$$$$$$$$$$$$$$$$$$$$$$$$$ 




                 $$$$$$$$$$$$$$$$  JOB NUMBER  1 $$$$$$$$$$$$$$


                       ****************************
                       * Single Point Calculation *
                       ****************************

---------------------------------
CARTESIAN COORDINATES (ANGSTROEM)
---------------------------------
  C     -1.143472    3.251015   -8.383428
  O     -1.942154    2.903486   -9.464382
  H     -1.698939    3.509440  -10.183064
  H     -1.426148    2.504044   -7.571571
  H     -0.084644    3.152513   -8.594473
  H     -1.392792    4.268874   -8.070492
  C      0.647769    0.124529   -6.481577
  O     -0.226637   -0.471103   -5.579255
  H     -1.142298   -0.269324   -5.796997
  H      0.812610    1.142135   -6.183510
  H      1.646017   -0.430610   -6.555215
  H      0.176068    0.014633   -7.407592

----------------------------
CARTESIAN COORDINATES (A.U.)
----------------------------
  NO LB      ZA    FRAG     MASS         X           Y           Z
   0 C     6.0000    0    12.011   -2.160849    6.143528  -15.842383
   1 O     8.0000    0    15.999   -3.670139    5.486793  -17.885090
   2 H     1.0000    0     1.008   -3.210529    6.631880  -19.243202
   3 H     1.0000    0     1.008   -2.695029    4.731957  -14.308196
   4 H     1.0000    0     1.008   -0.159954    5.957386  -16.241200
   5 H     1.0000    0     1.008   -2.631995    8.067003  -15.251020
   6 C     6.0000    0    12.011    1.224106    0.235326  -12.248405
   7 O     8.0000    0    15.999   -0.428282   -0.890256  -10.543264
   8 H     1.0000    0     1.008   -2.158630   -0.508949  -10.954737
   9 H     1.0000    0     1.008    1.535610    2.158322  -11.685140
  10 H     1.0000    0     1.008    3.110521   -0.813735  -12.387561
  11 H     1.0000    0     1.008    0.332720    0.027652  -13.998320

--------------------------------
INTERNAL COORDINATES (ANGSTROEM)
--------------------------------
 C      0   0   0     0.000000000000     0.00000000     0.00000000
 O      1   0   0     1.388211400717     0.00000000     0.00000000
 H      2   1   0     0.970998251010   106.02116187     0.00000000
 H      1   2   3     1.138851695466   104.36435512   181.80798242
 H      1   2   3     1.084139921603   112.80362182   299.69903730
 H      1   2   3     1.093675612957   108.94344299    63.79064052
 C      4   1   2     3.339357764324   123.08664728   111.51397164
 O      7   4   1     1.390520882239    97.26737928   182.07190916
 H      8   7   4     0.962580599392   111.19861090    21.62827671
 H      7   4   1     1.073097601808    60.68221271    74.53516046
 H      7   4   1     1.144596406542   150.02528809   355.16188157
 H      7   4   1     1.045027628554    60.35465293   284.36464720

---------------------------
INTERNAL COORDINATES (A.U.)
---------------------------
 C      0   0   0     0.000000000000     0.00000000     0.00000000
 O      1   0   0     2.623339363343     0.00000000     0.00000000
 H      2   1   0     1.834920770926   106.02116187     0.00000000
 H      1   2   3     2.152117811583   104.36435512   181.80798242
 H      1   2   3     2.048727542680   112.80362182   299.69903730
 H      1   2   3     2.066747387837   108.94344299    63.79064052
 C      4   1   2     6.310471637756   123.08664728   111.51397164
 O      7   4   1     2.627703650931    97.26737928   182.07190916
 H      8   7   4     1.819013714677   111.19861090    21.62827671
 H      7   4   1     2.027860582385    60.68221271    74.53516046
 H      7   4   1     2.162973742235   150.02528809   355.16188157
 H      7   4   1     1.974816020349    60.35465293   284.36464720

---------------------
BASIS SET INFORMATION
---------------------
There are 3 groups of distinct atoms

 Group   1 Type C   : 11s6p2d1f contracted to 5s3p2d1f pattern {62111/411/11/1}
 Group   2 Type O   : 11s6p2d1f contracted to 5s3p2d1f pattern {62111/411/11/1}
 Group   3 Type H   : 5s1p contracted to 3s1p pattern {311/1}

Atom   0C    basis set group =>   1
Atom   1O    basis set group =>   2
Atom   2H    basis set group =>   3
Atom   3H    basis set group =>   3
Atom   4H    basis set group =>   3
Atom   5H    basis set group =>   3
Atom   6C    basis set group =>   1
Atom   7O    basis set group =>   2
Atom   8H    basis set group =>   3
Atom   9H    basis set group =>   3
Atom  10H    basis set group =>   3
Atom  11H    basis set group =>   3


           ************************************************************
           *        Program running with 8 parallel MPI-processes     *
           *              working on a common directory               *
           ************************************************************
------------------------------------------------------------------------------
                           ORCA GTO INTEGRAL CALCULATION
------------------------------------------------------------------------------

                         BASIS SET STATISTICS AND STARTUP INFO

 # of primitive gaussian shells          ...  128
 # of primitive gaussian functions       ...  248
 # of contracted shells                  ...   76
 # of contracted basis functions         ...  172
 Highest angular momentum                ...    3
 Maximum contraction depth               ...    6
 Integral package used                   ... LIBINT
 Integral threshhold            Thresh   ...  2.500e-11
 Primitive cut-off              TCut     ...  2.500e-12


------------------------------ INTEGRAL EVALUATION ----------------------------


 * One electron integrals 
 Pre-screening matrix                    ... done
 Shell pair data                         ... done (   0.001 sec)



           ************************************************************
           *        Program running with 8 parallel MPI-processes     *
           *              working on a common directory               *
           ************************************************************
-------------------------------------------------------------------------------
                                 ORCA SCF
-------------------------------------------------------------------------------

------------
SCF SETTINGS
------------
Hamiltonian:
 Density Functional     Method          .... DFT(GTOs)
 Exchange Functional    Exchange        .... WB97X-D3
 Correlation Functional Correlation     .... WB97X-D3
 Gradients option       PostSCFGGA      .... off
 Hybrid DFT is turned on
   Fraction HF Exchange ScalHFX         ....  0.195728
   Scaling of DF-GGA-X  ScalDFX         ....  0.000000
   Scaling of DF-GGA-C  ScalDFC         ....  1.000000
   Scaling of DF-LDA-C  ScalLDAC        ....  1.000000
   Perturbative correction              ....  0.000000
   Density functional embedding theory  .... OFF
 Long-range corrected/Screened/Range-Separated Hybrid DFT is turned on
   Amount of maximum screened exact exchange              ....  0.804272
   Range separation parameter mu (erf(mu*r12)/r12)        ....  0.250000


General Settings:
 Integral files         IntName         .... 17-80_DFT_AB
 Hartree-Fock type      HFTyp           .... RHF
 Total Charge           Charge          ....    0
 Multiplicity           Mult            ....    1
 Number of Electrons    NEL             ....   36
 Basis Dimension        Dim             ....  172
 Nuclear Repulsion      ENuc            ....    118.3073307300 Eh

Convergence Acceleration:
 DIIS                   CNVDIIS         .... on
   Start iteration      DIISMaxIt       ....    12
   Startup error        DIISStart       ....  0.200000
   # of expansion vecs  DIISMaxEq       ....     5
   Bias factor          DIISBfac        ....   1.050
   Max. coefficient     DIISMaxC        ....  10.000
 Newton-Raphson         CNVNR           .... off
 SOSCF                  CNVSOSCF        .... on
   Start iteration      SOSCFMaxIt      ....   150
   Startup grad/error   SOSCFStart      ....  0.003300
 Level Shifting         CNVShift        .... on
   Level shift para.    LevelShift      ....    0.2500
   Turn off err/grad.   ShiftErr        ....    0.0010
 Zerner damping         CNVZerner       .... off
 Static damping         CNVDamp         .... on
   Fraction old density DampFac         ....    0.7000
   Max. Damping (<1)    DampMax         ....    0.9800
   Min. Damping (>=0)   DampMin         ....    0.0000
   Turn off err/grad.   DampErr         ....    0.1000
 Fernandez-Rico         CNVRico         .... off

SCF Procedure:
 Maximum # iterations   MaxIter         ....  1000
 SCF integral mode      SCFMode         .... Direct
   Integral package                     .... LIBINT
 Reset frequency        DirectResetFreq ....    20
 Integral Threshold     Thresh          ....  2.500e-11 Eh
 Primitive CutOff       TCut            ....  2.500e-12 Eh

Convergence Tolerance:
 Convergence Check Mode ConvCheckMode   .... Total+1el-Energy
 Convergence forced     ConvForced      .... 0
 Energy Change          TolE            ....  1.000e-08 Eh
 1-El. energy change                    ....  1.000e-05 Eh
 Orbital Gradient       TolG            ....  1.000e-05
 Orbital Rotation angle TolX            ....  1.000e-05
 DIIS Error             TolErr          ....  5.000e-07


Diagonalization of the overlap matrix:
Smallest eigenvalue                        ... 1.423e-03
Time for diagonalization                   ...    0.005 sec
Threshold for overlap eigenvalues          ... 1.000e-08
Number of eigenvalues below threshold      ... 0
Time for construction of square roots      ...    0.014 sec
Total time needed                          ...    0.019 sec

-------------------
DFT GRID GENERATION
-------------------

General Integration Accuracy     IntAcc      ...  4.340
Radial Grid Type                 RadialGrid  ... Gauss-Chebyshev
Angular Grid (max. acc.)         AngularGrid ... Lebedev-110
Angular grid pruning method      GridPruning ... 3 (G Style)
Weight generation scheme         WeightScheme... Becke
Basis function cutoff            BFCut       ...    1.0000e-11
Integration weight cutoff        WCut        ...    1.0000e-14
Grids for H and He will be reduced by one unit

# of grid points (after initial pruning)     ...  13096 (   0.0 sec)
# of grid points (after weights+screening)   ...  12530 (   0.0 sec)
nearest neighbour list constructed           ...    0.0 sec
Grid point re-assignment to atoms done       ...    0.0 sec
Grid point division into batches done        ...    0.0 sec
Reduced shell lists constructed in    0.0 sec

Total number of grid points                  ...    12530
Total number of batches                      ...      203
Average number of points per batch           ...       61
Average number of grid points per atom       ...     1044
Average number of shells per batch           ...    48.11 (63.30%)
Average number of basis functions per batch  ...   103.37 (60.10%)
Average number of large shells per batch     ...    39.41 (81.91%)
Average number of large basis fcns per batch ...    87.19 (84.34%)
Maximum spatial batch extension              ...  15.72, 15.27, 12.80 au
Average spatial batch extension              ...   0.37,  0.36,  0.35 au

Time for grid setup =    0.052 sec

------------------------------
INITIAL GUESS: MODEL POTENTIAL
------------------------------
Loading Hartree-Fock densities                     ... done
Calculating cut-offs                               ... done
Setting up the integral package                    ... done
Initializing the effective Hamiltonian             ... done
Starting the Coulomb interaction                   ... done (   0.0 sec)
Reading the grid                                   ... done
Mapping shells                                     ... done
Starting the XC term evaluation                    ... done (   0.0 sec)
  promolecular density results
     # of electrons  =     35.994184257
     EX              =    -28.871426827
     EC              =     -1.153752411
     EX+EC           =    -30.025179238
Transforming the Hamiltonian                       ... done (   0.0 sec)
Diagonalizing the Hamiltonian                      ... done (   0.0 sec)
Back transforming the eigenvectors                 ... done (   0.0 sec)
Now organizing SCF variables                       ... done
                      ------------------
                      INITIAL GUESS DONE (   0.2 sec)
                      ------------------
--------------
SCF ITERATIONS
--------------
ITER       Energy         Delta-E        Max-DP      RMS-DP      [F,P]     Damp
               ***  Starting incremental Fock matrix formation  ***
  0   -231.2839637325   0.000000000000 0.03697243  0.00108125  0.2470213 0.7000
  1   -231.3606743517  -0.076710619149 0.02172022  0.00076605  0.1225649 0.7000
                               ***Turning on DIIS***
  2   -231.3958479193  -0.035173567640 0.03260380  0.00137760  0.0523135 0.0000
  3   -231.4528389585  -0.056991039204 0.01766288  0.00050304  0.0610700 0.0000
  4   -231.4622938379  -0.009454879348 0.00424975  0.00009941  0.0061883 0.0000
                      *** Initiating the SOSCF procedure ***
                           *** Shutting down DIIS ***
                      *** Re-Reading the Fockian *** 
                      *** Removing any level shift *** 
ITER      Energy       Delta-E        Grad      Rot      Max-DP    RMS-DP
  5   -231.46248625  -0.0001924091  0.000426  0.000426  0.000750  0.000034
               *** Restarting incremental Fock matrix formation ***
  6   -231.46250386  -0.0000176121  0.000131  0.000210  0.000501  0.000021
  7   -231.46250555  -0.0000016901  0.000046  0.000101  0.000240  0.000009
  8   -231.46250569  -0.0000001363  0.000028  0.000017  0.000051  0.000001
  9   -231.46250571  -0.0000000211  0.000014  0.000007  0.000021  0.000001
                  ***Gradient check signals convergence***
              ***Rediagonalizing the Fockian in SOSCF/NRSCF***

               *****************************************************
               *                     SUCCESS                       *
               *           SCF CONVERGED AFTER  10 CYCLES          *
               *****************************************************

Setting up the final grid:

General Integration Accuracy     IntAcc      ...  4.670
Radial Grid Type                 RadialGrid  ... Gauss-Chebyshev
Angular Grid (max. acc.)         AngularGrid ... Lebedev-302
Angular grid pruning method      GridPruning ... 3 (G Style)
Weight generation scheme         WeightScheme... Becke
Basis function cutoff            BFCut       ...    1.0000e-11
Integration weight cutoff        WCut        ...    1.0000e-14
Grids for H and He will be reduced by one unit

# of grid points (after initial pruning)     ...  52000 (   0.0 sec)
# of grid points (after weights+screening)   ...  49263 (   0.0 sec)
nearest neighbour list constructed           ...    0.0 sec
Grid point re-assignment to atoms done       ...    0.0 sec
Grid point division into batches done        ...    0.2 sec
Reduced shell lists constructed in    0.2 sec

Total number of grid points                  ...    49263
Total number of batches                      ...      776
Average number of points per batch           ...       63
Average number of grid points per atom       ...     4105
Average number of shells per batch           ...    46.57 (61.28%)
Average number of basis functions per batch  ...   100.22 (58.27%)
Average number of large shells per batch     ...    37.78 (81.11%)
Average number of large basis fcns per batch ...    83.35 (83.16%)
Maximum spatial batch extension              ...  14.28, 16.95, 13.13 au
Average spatial batch extension              ...   0.24,  0.26,  0.23 au

Final grid set up in    0.2 sec
Final integration                            ... done (   0.1 sec)
Change in XC energy                          ...    -0.000597505
Integrated number of electrons               ...    35.999975672
Previous integrated no of electrons          ...    35.997587842

----------------
TOTAL SCF ENERGY
----------------

Total Energy       :         -231.46310322 Eh           -6298.43124 eV

Components:
Nuclear Repulsion  :          118.30733073 Eh            3219.30614 eV
Electronic Energy  :         -349.77043395 Eh           -9517.73738 eV
One Electron Energy:         -549.34322379 Eh          -14948.38908 eV
Two Electron Energy:          199.57278984 Eh            5430.65170 eV

Virial components:
Potential Energy   :         -462.05073106 Eh          -12573.03959 eV
Kinetic Energy     :          230.58762784 Eh            6274.60835 eV
Virial Ratio       :            2.00379671


DFT components:
N(Alpha)           :       17.999987835971 electrons
N(Beta)            :       17.999987835971 electrons
N(Total)           :       35.999975671941 electrons
E(XC)              :      -21.323994786526 Eh       
DFET-embed. en.    :        0.000000000000 Eh       

---------------
SCF CONVERGENCE
---------------

  Last Energy change         ...   -4.8069e-09  Tolerance :   1.0000e-08
  Last MAX-Density change    ...    4.7014e-06  Tolerance :   1.0000e-07
  Last RMS-Density change    ...    1.5155e-07  Tolerance :   5.0000e-09
  Last Orbital Gradient      ...    1.7780e-06  Tolerance :   1.0000e-05
  Last Orbital Rotation      ...    1.9873e-06  Tolerance :   1.0000e-05

             **** THE GBW FILE WAS UPDATED (17-80_DFT_AB.gbw) ****
             **** DENSITY FILE WAS UPDATED (17-80_DFT_AB.scfp.tmp) ****
             **** ENERGY FILE WAS UPDATED (17-80_DFT_AB.en.tmp) ****
----------------
ORBITAL ENERGIES
----------------

  NO   OCC          E(Eh)            E(eV) 
   0   2.0000     -19.235070      -523.4129 
   1   2.0000     -19.222252      -523.0641 
   2   2.0000     -10.320082      -280.8237 
   3   2.0000     -10.307450      -280.4800 
   4   2.0000      -1.149295       -31.2739 
   5   2.0000      -1.138651       -30.9843 
   6   2.0000      -0.795076       -21.6351 
   7   2.0000      -0.792549       -21.5663 
   8   2.0000      -0.619722       -16.8635 
   9   2.0000      -0.611369       -16.6362 
  10   2.0000      -0.557222       -15.1628 
  11   2.0000      -0.555868       -15.1259 
  12   2.0000      -0.529516       -14.4089 
  13   2.0000      -0.525864       -14.3095 
  14   2.0000      -0.437546       -11.9062 
  15   2.0000      -0.418309       -11.3828 
  16   2.0000      -0.378054       -10.2874 
  17   2.0000      -0.369898       -10.0654 
  18   0.0000       0.098232         2.6730 
  19   0.0000       0.115447         3.1415 
  20   0.0000       0.142206         3.8696 
  21   0.0000       0.172743         4.7006 
  22   0.0000       0.185644         5.0516 
  23   0.0000       0.190965         5.1964 
  24   0.0000       0.197891         5.3849 
  25   0.0000       0.224856         6.1186 
  26   0.0000       0.237325         6.4580 
  27   0.0000       0.255903         6.9635 
  28   0.0000       0.290897         7.9157 
  29   0.0000       0.304210         8.2780 
  30   0.0000       0.307453         8.3662 
  31   0.0000       0.402587        10.9550 
  32   0.0000       0.419393        11.4123 
  33   0.0000       0.426607        11.6086 
  34   0.0000       0.451004        12.2724 
  35   0.0000       0.455669        12.3994 
  36   0.0000       0.481401        13.0996 
  37   0.0000       0.487895        13.2763 
  38   0.0000       0.527059        14.3420 
  39   0.0000       0.540683        14.7127 
  40   0.0000       0.549721        14.9587 
  41   0.0000       0.556241        15.1361 
  42   0.0000       0.577839        15.7238 
  43   0.0000       0.591818        16.1042 
  44   0.0000       0.604353        16.4453 
  45   0.0000       0.614106        16.7107 
  46   0.0000       0.631091        17.1729 
  47   0.0000       0.652383        17.7522 
  48   0.0000       0.668954        18.2032 
  49   0.0000       0.715006        19.4563 
  50   0.0000       0.775957        21.1149 
  51   0.0000       0.791143        21.5281 
  52   0.0000       0.814804        22.1720 
  53   0.0000       0.829720        22.5778 
  54   0.0000       0.875039        23.8110 
  55   0.0000       0.908358        24.7177 
  56   0.0000       0.990348        26.9487 
  57   0.0000       1.012724        27.5576 
  58   0.0000       1.039544        28.2874 
  59   0.0000       1.065149        28.9842 
  60   0.0000       1.120550        30.4917 
  61   0.0000       1.170761        31.8580 
  62   0.0000       1.375037        37.4167 
  63   0.0000       1.391658        37.8689 
  64   0.0000       1.490063        40.5467 
  65   0.0000       1.500789        40.8385 
  66   0.0000       1.543129        41.9907 
  67   0.0000       1.573722        42.8231 
  68   0.0000       1.592347        43.3300 
  69   0.0000       1.606000        43.7015 
  70   0.0000       1.613795        43.9136 
  71   0.0000       1.628900        44.3246 
  72   0.0000       1.636102        44.5206 
  73   0.0000       1.650224        44.9049 
  74   0.0000       1.664877        45.3036 
  75   0.0000       1.685493        45.8646 
  76   0.0000       1.701490        46.2999 
  77   0.0000       1.738841        47.3163 
  78   0.0000       1.759031        47.8657 
  79   0.0000       1.771821        48.2137 
  80   0.0000       1.952317        53.1252 
  81   0.0000       1.954344        53.1804 
  82   0.0000       2.006002        54.5861 
  83   0.0000       2.037841        55.4525 
  84   0.0000       2.044692        55.6389 
  85   0.0000       2.056772        55.9676 
  86   0.0000       2.089318        56.8532 
  87   0.0000       2.119460        57.6734 
  88   0.0000       2.129897        57.9574 
  89   0.0000       2.147489        58.4361 
  90   0.0000       2.265342        61.6431 
  91   0.0000       2.283352        62.1332 
  92   0.0000       2.304970        62.7214 
  93   0.0000       2.332258        63.4640 
  94   0.0000       2.354518        64.0697 
  95   0.0000       2.365968        64.3813 
  96   0.0000       2.378953        64.7346 
  97   0.0000       2.409088        65.5546 
  98   0.0000       2.423288        65.9410 
  99   0.0000       2.441419        66.4344 
 100   0.0000       2.494007        67.8654 
 101   0.0000       2.533541        68.9412 
 102   0.0000       2.584060        70.3159 
 103   0.0000       2.603018        70.8317 
 104   0.0000       2.647807        72.0505 
 105   0.0000       2.676247        72.8244 
 106   0.0000       2.681813        72.9759 
 107   0.0000       2.709497        73.7292 
 108   0.0000       2.810848        76.4871 
 109   0.0000       2.827497        76.9401 
 110   0.0000       2.882010        78.4235 
 111   0.0000       2.889010        78.6140 
 112   0.0000       2.919412        79.4412 
 113   0.0000       2.987711        81.2997 
 114   0.0000       3.010807        81.9282 
 115   0.0000       3.016028        82.0703 
 116   0.0000       3.096384        84.2569 
 117   0.0000       3.122272        84.9613 
 118   0.0000       3.170444        86.2722 
 119   0.0000       3.186822        86.7178 
 120   0.0000       3.314597        90.1948 
 121   0.0000       3.334738        90.7428 
 122   0.0000       3.412831        92.8678 
 123   0.0000       3.420648        93.0806 
 124   0.0000       3.426150        93.2303 
 125   0.0000       3.482500        94.7637 
 126   0.0000       3.487401        94.8970 
 127   0.0000       3.549930        96.5985 
 128   0.0000       3.638615        99.0117 
 129   0.0000       3.647761        99.2606 
 130   0.0000       3.650539        99.3362 
 131   0.0000       3.656167        99.4894 
 132   0.0000       3.669069        99.8404 
 133   0.0000       3.690262       100.4171 
 134   0.0000       3.978250       108.2537 
 135   0.0000       4.011696       109.1638 
 136   0.0000       4.196517       114.1930 
 137   0.0000       4.209833       114.5554 
 138   0.0000       4.226176       115.0001 
 139   0.0000       4.277484       116.3963 
 140   0.0000       4.464092       121.4741 
 141   0.0000       4.502424       122.5172 
 142   0.0000       4.552042       123.8674 
 143   0.0000       4.583255       124.7167 
 144   0.0000       5.357601       145.7877 
 145   0.0000       5.361265       145.8874 
 146   0.0000       5.418262       147.4384 
 147   0.0000       5.448148       148.2517 
 148   0.0000       5.539215       150.7297 
 149   0.0000       5.582547       151.9088 
 150   0.0000       5.823938       158.4774 
 151   0.0000       5.866251       159.6288 
 152   0.0000       5.869524       159.7179 
 153   0.0000       5.883151       160.0887 
 154   0.0000       6.001619       163.3124 
 155   0.0000       6.020459       163.8250 
 156   0.0000       6.339166       172.4975 
 157   0.0000       6.365264       173.2076 
 158   0.0000       6.533918       177.7970 
 159   0.0000       6.539938       177.9607 
 160   0.0000       6.751006       183.7042 
 161   0.0000       6.755952       183.8388 
 162   0.0000       6.821080       185.6110 
 163   0.0000       6.849392       186.3814 
 164   0.0000       7.036317       191.4679 
 165   0.0000       7.046894       191.7557 
 166   0.0000       7.214906       196.3276 
 167   0.0000       7.225017       196.6027 
 168   0.0000      22.420404       610.0902 
 169   0.0000      22.496149       612.1513 
 170   0.0000      43.688803      1188.8328 
 171   0.0000      43.732099      1190.0109 

                    ********************************
                    * MULLIKEN POPULATION ANALYSIS *
                    ********************************

-----------------------
MULLIKEN ATOMIC CHARGES
-----------------------
   0 C :   -0.155811
   1 O :   -0.467296
   2 H :    0.313369
   3 H :    0.105479
   4 H :    0.104906
   5 H :    0.100206
   6 C :   -0.164810
   7 O :   -0.484057
   8 H :    0.319025
   9 H :    0.099271
  10 H :    0.111555
  11 H :    0.118163
Sum of atomic charges:   -0.0000000

--------------------------------
MULLIKEN REDUCED ORBITAL CHARGES
--------------------------------
  0 C s       :     3.232827  s :     3.232827
      pz      :     0.840962  p :     2.817089
      px      :     0.934022
      py      :     1.042105
      dz2     :     0.025249  d :     0.097826
      dxz     :     0.015641
      dyz     :     0.029096
      dx2y2   :     0.020129
      dxy     :     0.007712
      f0      :     0.001583  f :     0.008070
      f+1     :     0.001185
      f-1     :     0.001008
      f+2     :     0.001847
      f-2     :     0.001334
      f+3     :     0.000739
      f-3     :     0.000375
  1 O s       :     3.797636  s :     3.797636
      pz      :     1.282756  p :     4.635570
      px      :     1.689243
      py      :     1.663570
      dz2     :     0.004018  d :     0.032391
      dxz     :     0.007994
      dyz     :     0.010721
      dx2y2   :     0.004758
      dxy     :     0.004901
      f0      :     0.000181  f :     0.001699
      f+1     :     0.000354
      f-1     :     0.000340
      f+2     :     0.000318
      f-2     :     0.000311
      f+3     :     0.000117
      f-3     :     0.000079
  2 H s       :     0.640769  s :     0.640769
      pz      :     0.015531  p :     0.045862
      px      :     0.014096
      py      :     0.016235
  3 H s       :     0.875978  s :     0.875978
      pz      :     0.007675  p :     0.018543
      px      :     0.003655
      py      :     0.007213
  4 H s       :     0.875698  s :     0.875698
      pz      :     0.003278  p :     0.019395
      px      :     0.012071
      py      :     0.004047
  5 H s       :     0.880164  s :     0.880164
      pz      :     0.004092  p :     0.019630
      px      :     0.004003
      py      :     0.011535
  6 C s       :     3.231679  s :     3.231679
      pz      :     0.883154  p :     2.825045
      px      :     0.958008
      py      :     0.983883
      dz2     :     0.029125  d :     0.099904
      dxz     :     0.014657
      dyz     :     0.011110
      dx2y2   :     0.024529
      dxy     :     0.020483
      f0      :     0.000958  f :     0.008183
      f+1     :     0.002120
      f-1     :     0.000671
      f+2     :     0.001501
      f-2     :     0.001059
      f+3     :     0.000841
      f-3     :     0.001033
  7 O s       :     3.780174  s :     3.780174
      pz      :     1.666577  p :     4.671471
      px      :     1.227942
      py      :     1.776952
      dz2     :     0.006529  d :     0.030623
      dxz     :     0.007323
      dyz     :     0.005437
      dx2y2   :     0.006003
      dxy     :     0.005331
      f0      :     0.000228  f :     0.001789
      f+1     :     0.000227
      f-1     :     0.000149
      f+2     :     0.000289
      f-2     :     0.000268
      f+3     :     0.000366
      f-3     :     0.000263
  8 H s       :     0.633672  s :     0.633672
      pz      :     0.013278  p :     0.047303
      px      :     0.018161
      py      :     0.015864
  9 H s       :     0.880375  s :     0.880375
      pz      :     0.004252  p :     0.020354
      px      :     0.004045
      py      :     0.012057
 10 H s       :     0.870239  s :     0.870239
      pz      :     0.003050  p :     0.018206
      px      :     0.010081
      py      :     0.005075
 11 H s       :     0.861068  s :     0.861068
      pz      :     0.010636  p :     0.020769
      px      :     0.005675
      py      :     0.004458


                     *******************************
                     * LOEWDIN POPULATION ANALYSIS *
                     *******************************

----------------------
LOEWDIN ATOMIC CHARGES
----------------------
   0 C :   -0.409835
   1 O :   -0.065617
   2 H :    0.176853
   3 H :    0.115167
   4 H :    0.090862
   5 H :    0.093555
   6 C :   -0.397036
   7 O :   -0.069300
   8 H :    0.170570
   9 H :    0.089253
  10 H :    0.116856
  11 H :    0.088672

-------------------------------
LOEWDIN REDUCED ORBITAL CHARGES
-------------------------------
  0 C s       :     2.868716  s :     2.868716
      pz      :     0.935665  p :     3.047668
      px      :     1.026217
      py      :     1.085786
      dz2     :     0.090915  d :     0.431196
      dxz     :     0.083063
      dyz     :     0.117827
      dx2y2   :     0.111662
      dxy     :     0.027730
      f0      :     0.012329  f :     0.062255
      f+1     :     0.011400
      f-1     :     0.008066
      f+2     :     0.009897
      f-2     :     0.012799
      f+3     :     0.004222
      f-3     :     0.003542
  1 O s       :     3.364067  s :     3.364067
      pz      :     1.324334  p :     4.619659
      px      :     1.666073
      py      :     1.629253
      dz2     :     0.016533  d :     0.076788
      dxz     :     0.018488
      dyz     :     0.025824
      dx2y2   :     0.008766
      dxy     :     0.007177
      f0      :     0.000777  f :     0.005103
      f+1     :     0.000979
      f-1     :     0.000810
      f+2     :     0.000914
      f-2     :     0.001165
      f+3     :     0.000267
      f-3     :     0.000191
  2 H s       :     0.671287  s :     0.671287
      pz      :     0.050703  p :     0.151860
      px      :     0.042478
      py      :     0.058678
  3 H s       :     0.833491  s :     0.833491
      pz      :     0.019773  p :     0.051343
      px      :     0.010923
      py      :     0.020646
  4 H s       :     0.847314  s :     0.847314
      pz      :     0.011346  p :     0.061824
      px      :     0.036913
      py      :     0.013565
  5 H s       :     0.846305  s :     0.846305
      pz      :     0.013178  p :     0.060140
      px      :     0.012792
      py      :     0.034171
  6 C s       :     2.858015  s :     2.858015
      pz      :     0.988626  p :     3.051659
      px      :     1.011143
      py      :     1.051890
      dz2     :     0.122729  d :     0.424677
      dxz     :     0.077935
      dyz     :     0.051194
      dx2y2   :     0.090834
      dxy     :     0.081984
      f0      :     0.005845  f :     0.062685
      f+1     :     0.015281
      f-1     :     0.006494
      f+2     :     0.011638
      f-2     :     0.011375
      f+3     :     0.005162
      f-3     :     0.006890
  7 O s       :     3.348911  s :     3.348911
      pz      :     1.654821  p :     4.640395
      px      :     1.267161
      py      :     1.718413
      dz2     :     0.017644  d :     0.075084
      dxz     :     0.016241
      dyz     :     0.010192
      dx2y2   :     0.018584
      dxy     :     0.012423
      f0      :     0.000660  f :     0.004910
      f+1     :     0.000746
      f-1     :     0.000473
      f+2     :     0.000944
      f-2     :     0.000829
      f+3     :     0.000710
      f-3     :     0.000548
  8 H s       :     0.672249  s :     0.672249
      pz      :     0.041342  p :     0.157181
      px      :     0.069684
      py      :     0.046155
  9 H s       :     0.847677  s :     0.847677
      pz      :     0.013682  p :     0.063071
      px      :     0.013337
      py      :     0.036052
 10 H s       :     0.831949  s :     0.831949
      pz      :     0.008848  p :     0.051195
      px      :     0.027173
      py      :     0.015174
 11 H s       :     0.842855  s :     0.842855
      pz      :     0.033588  p :     0.068473
      px      :     0.019497
      py      :     0.015387


                      *****************************
                      * MAYER POPULATION ANALYSIS *
                      *****************************

  NA   - Mulliken gross atomic population
  ZA   - Total nuclear charge
  QA   - Mulliken gross atomic charge
  VA   - Mayer's total valence
  BVA  - Mayer's bonded valence
  FA   - Mayer's free valence

  ATOM       NA         ZA         QA         VA         BVA        FA
  0 C      6.1558     6.0000    -0.1558     3.9385     3.9385    -0.0000
  1 O      8.4673     8.0000    -0.4673     1.8835     1.8835    -0.0000
  2 H      0.6866     1.0000     0.3134     0.9120     0.9120    -0.0000
  3 H      0.8945     1.0000     0.1055     0.9603     0.9603     0.0000
  4 H      0.8951     1.0000     0.1049     0.9571     0.9571     0.0000
  5 H      0.8998     1.0000     0.1002     0.9622     0.9622    -0.0000
  6 C      6.1648     6.0000    -0.1648     3.9480     3.9480    -0.0000
  7 O      8.4841     8.0000    -0.4841     1.8623     1.8623    -0.0000
  8 H      0.6810     1.0000     0.3190     0.9092     0.9092     0.0000
  9 H      0.9007     1.0000     0.0993     0.9574     0.9574    -0.0000
 10 H      0.8884     1.0000     0.1116     0.9591     0.9591     0.0000
 11 H      0.8818     1.0000     0.1182     0.9628     0.9628    -0.0000

  Mayer bond orders larger than 0.1
B(  0-C ,  1-O ) :   0.9983 B(  0-C ,  3-H ) :   0.9736 B(  0-C ,  4-H ) :   0.9731 
B(  0-C ,  5-H ) :   0.9764 B(  1-O ,  2-H ) :   0.8987 B(  6-C ,  7-O ) :   0.9906 
B(  6-C ,  9-H ) :   0.9781 B(  6-C , 10-H ) :   0.9664 B(  6-C , 11-H ) :   0.9932 
B(  7-O ,  8-H ) :   0.8949 

-------
TIMINGS
-------

Total SCF time: 0 days 0 hours 0 min 18 sec 

Total time                  ....      18.177 sec
Sum of individual times     ....      17.605 sec  ( 96.9%)

Fock matrix formation       ....      16.873 sec  ( 92.8%)
  XC integration            ....       8.371 sec  ( 49.6% of F)
    Basis function eval.    ....       0.054 sec  (  0.6% of XC)
    Density eval.           ....       0.069 sec  (  0.8% of XC)
    XC-Functional eval.     ....       0.103 sec  (  1.2% of XC)
    XC-Potential eval.      ....       0.060 sec  (  0.7% of XC)
Diagonalization             ....       0.123 sec  (  0.7%)
Density matrix formation    ....       0.005 sec  (  0.0%)
Population analysis         ....       0.030 sec  (  0.2%)
Initial guess               ....       0.125 sec  (  0.7%)
Orbital Transformation      ....       0.000 sec  (  0.0%)
Orbital Orthonormalization  ....       0.000 sec  (  0.0%)
DIIS solution               ....       0.096 sec  (  0.5%)
SOSCF solution              ....       0.052 sec  (  0.3%)
Grid generation             ....       0.302 sec  (  1.7%)


-------------------------------------------------------------------------------
                          DFT DISPERSION CORRECTION                            
                                                                               
                              DFTD3 V3.1  Rev 1                                
                              USING zero damping                               
-------------------------------------------------------------------------------
The omegaB97X-D3 functional is recognized. Fit by Chai et al.
Active option DFTDOPT                   ...         3   

molecular C6(AA) [au] = 834.945236 


            DFT-D V3
 parameters
 s6 scaling factor         :     1.0000 
 rs6 scaling factor        :     1.2810 
 s8 scaling factor         :     1.0000 
 rs8 scaling factor        :     1.0940 
 Damping factor alpha6     :    14.0000 
 Damping factor alpha8     :    16.0000 
 ad hoc parameters k1-k3   :    16.0000     1.3333    -4.0000 

 Edisp/kcal,au: -0.866907343846  -0.001381504642 
 E6   /kcal   :  -0.440270889 
 E8   /kcal   :  -0.426636455 
 % E8         :  49.213616394 

-------------------------   ----------------
Dispersion correction           -0.001381505
-------------------------   ----------------


-------------------------   --------------------
FINAL SINGLE POINT ENERGY      -231.464484720710
-------------------------   --------------------


                            ***************************************
                            *     ORCA property calculations      *
                            ***************************************

                                    ---------------------
                                    Active property flags
                                    ---------------------
   (+) Dipole Moment


------------------------------------------------------------------------------
                       ORCA ELECTRIC PROPERTIES CALCULATION
------------------------------------------------------------------------------

Dipole Moment Calculation                       ... on
Quadrupole Moment Calculation                   ... off
Polarizability Calculation                      ... off
GBWName                                         ... 17-80_DFT_AB.gbw
Electron density file                           ... 17-80_DFT_AB.scfp.tmp
The origin for moment calculation is the CENTER OF MASS  = (-1.291214,  2.756038 -14.156507)

-------------
DIPOLE MOMENT
-------------
                                X             Y             Z
Electronic contribution:     -2.01104      -1.20685      -0.19029
Nuclear contribution   :      2.19859       2.07957      -0.40667
                        -----------------------------------------
Total Dipole Moment    :      0.18756       0.87272      -0.59695
                        -----------------------------------------
Magnitude (a.u.)       :      1.07386
Magnitude (Debye)      :      2.72953



--------------------
Rotational spectrum 
--------------------
 
Rotational constants in cm-1:     0.532168     0.044473     0.043626 
Rotational constants in MHz : 15954.001331  1333.271486  1307.875745 

 Dipole components along the rotational axes: 
x,y,z [a.u.] :    -0.908428     0.572365     0.018070 
x,y,z [Debye]:    -2.309040     1.454836     0.045930 

 
------------------------------------------------------------------------------
                      ORCA CHELPG CHARGES GENERATION
------------------------------------------------------------------------------

GBW file                           ... 17-80_DFT_AB.gbw

Reading the GBW file               ... done

Grid spacing                       ...     0.300000
Point Cut-Off                      ...     2.800000
Van-der-Waals Radii                ...        COSMO
Total charge                       ...            0


Number of points X direction       ...           30
Number of points Y direction       ...           34
Number of points Z direction       ...           34
Maximum number of possible points  ...        34680
Final number of points             ...        10294


CHELPG Charges            
--------------------------------
  0   C   :       0.058629
  1   O   :      -0.594378
  2   H   :       0.404903
  3   H   :       0.092430
  4   H   :       0.014667
  5   H   :       0.025630
  6   C   :       0.184628
  7   O   :      -0.639914
  8   H   :       0.412961
  9   H   :      -0.013869
 10   H   :       0.045430
 11   H   :       0.008884
--------------------------------
Total charge:     0.000000
--------------------------------

CHELPG charges calculated...

Timings for individual parts in CHELPG calculation:
Grid generation                 ...        0.002 sec (=   0.000 min)
Potential calculation           ...        2.102 sec (=   0.035 min)
Fit to the potential            ...        0.003 sec (=   0.000 min)
------------------------------------------------------------------------------


Timings for individual modules:

Sum of individual times         ...       28.834 sec (=   0.481 min)
GTO integral calculation        ...        4.616 sec (=   0.077 min)  16.0 %
SCF iterations                  ...       22.073 sec (=   0.368 min)  76.6 %
CHELPG charge generation        ...        2.145 sec (=   0.036 min)   7.4 %


                 $$$$$$$$$$$$$$$$  JOB NUMBER  2 $$$$$$$$$$$$$$


                       ****************************
                       * Single Point Calculation *
                       ****************************

---------------------------------
CARTESIAN COORDINATES (ANGSTROEM)
---------------------------------
  C     -1.143472    3.251015   -8.383428
  O     -1.942154    2.903486   -9.464382
  H     -1.698939    3.509440  -10.183064
  H     -1.426148    2.504044   -7.571571
  H     -0.084644    3.152513   -8.594473
  H     -1.392792    4.268874   -8.070492
  C      0.647769    0.124529   -6.481577
  O     -0.226637   -0.471103   -5.579255
  H     -1.142298   -0.269324   -5.796997
  H      0.812610    1.142135   -6.183510
  H      1.646017   -0.430610   -6.555215
  H      0.176068    0.014633   -7.407592

----------------------------
CARTESIAN COORDINATES (A.U.)
----------------------------
  NO LB      ZA    FRAG     MASS         X           Y           Z
   0 C     6.0000    0    12.011   -2.160849    6.143528  -15.842383
   1 O     8.0000    0    15.999   -3.670139    5.486793  -17.885090
   2 H     1.0000    0     1.008   -3.210529    6.631880  -19.243202
   3 H     1.0000    0     1.008   -2.695029    4.731957  -14.308196
   4 H     1.0000    0     1.008   -0.159954    5.957386  -16.241200
   5 H     1.0000    0     1.008   -2.631995    8.067003  -15.251020
   6 C     0.0000    0     0.000    1.224106    0.235326  -12.248405
   7 O     0.0000    0     0.000   -0.428282   -0.890256  -10.543264
   8 H     0.0000    0     0.000   -2.158630   -0.508949  -10.954737
   9 H     0.0000    0     0.000    1.535610    2.158322  -11.685140
  10 H     0.0000    0     0.000    3.110521   -0.813735  -12.387561
  11 H     0.0000    0     0.000    0.332720    0.027652  -13.998320

--------------------------------
INTERNAL COORDINATES (ANGSTROEM)
--------------------------------
 C      0   0   0     0.000000000000     0.00000000     0.00000000
 O      1   0   0     1.388211400717     0.00000000     0.00000000
 H      2   1   0     0.970998251010   106.02116187     0.00000000
 H      1   2   3     1.138851695466   104.36435512   181.80798242
 H      1   2   3     1.084139921603   112.80362182   299.69903730
 H      1   2   3     1.093675612957   108.94344299    63.79064052
 C      4   1   2     3.339357764324   123.08664728   111.51397164
 O      7   4   1     1.390520882239    97.26737928   182.07190916
 H      8   7   4     0.962580599392   111.19861090    21.62827671
 H      7   4   1     1.073097601808    60.68221271    74.53516046
 H      7   4   1     1.144596406542   150.02528809   355.16188157
 H      7   4   1     1.045027628554    60.35465293   284.36464720

---------------------------
INTERNAL COORDINATES (A.U.)
---------------------------
 C      0   0   0     0.000000000000     0.00000000     0.00000000
 O      1   0   0     2.623339363343     0.00000000     0.00000000
 H      2   1   0     1.834920770926   106.02116187     0.00000000
 H      1   2   3     2.152117811583   104.36435512   181.80798242
 H      1   2   3     2.048727542680   112.80362182   299.69903730
 H      1   2   3     2.066747387837   108.94344299    63.79064052
 C      4   1   2     6.310471637756   123.08664728   111.51397164
 O      7   4   1     2.627703650931    97.26737928   182.07190916
 H      8   7   4     1.819013714677   111.19861090    21.62827671
 H      7   4   1     2.027860582385    60.68221271    74.53516046
 H      7   4   1     2.162973742235   150.02528809   355.16188157
 H      7   4   1     1.974816020349    60.35465293   284.36464720

---------------------
BASIS SET INFORMATION
---------------------
There are 3 groups of distinct atoms

 Group   1 Type C   : 11s6p2d1f contracted to 5s3p2d1f pattern {62111/411/11/1}
 Group   2 Type O   : 11s6p2d1f contracted to 5s3p2d1f pattern {62111/411/11/1}
 Group   3 Type H   : 5s1p contracted to 3s1p pattern {311/1}

Atom   0C    basis set group =>   1
Atom   1O    basis set group =>   2
Atom   2H    basis set group =>   3
Atom   3H    basis set group =>   3
Atom   4H    basis set group =>   3
Atom   5H    basis set group =>   3
Atom   6C    basis set group =>   1
Atom   7O    basis set group =>   2
Atom   8H    basis set group =>   3
Atom   9H    basis set group =>   3
Atom  10H    basis set group =>   3
Atom  11H    basis set group =>   3


           ************************************************************
           *        Program running with 8 parallel MPI-processes     *
           *              working on a common directory               *
           ************************************************************
------------------------------------------------------------------------------
                           ORCA GTO INTEGRAL CALCULATION
------------------------------------------------------------------------------

                         BASIS SET STATISTICS AND STARTUP INFO

 # of primitive gaussian shells          ...  128
 # of primitive gaussian functions       ...  248
 # of contracted shells                  ...   76
 # of contracted basis functions         ...  172
 Highest angular momentum                ...    3
 Maximum contraction depth               ...    6
 Integral package used                   ... LIBINT
 Integral threshhold            Thresh   ...  2.500e-11
 Primitive cut-off              TCut     ...  2.500e-12


------------------------------ INTEGRAL EVALUATION ----------------------------


 * One electron integrals 
 Pre-screening matrix                    ... done
 Shell pair data                         ... done (   0.001 sec)



           ************************************************************
           *        Program running with 8 parallel MPI-processes     *
           *              working on a common directory               *
           ************************************************************
-------------------------------------------------------------------------------
                                 ORCA SCF
-------------------------------------------------------------------------------

------------
SCF SETTINGS
------------
Hamiltonian:
 Density Functional     Method          .... DFT(GTOs)
 Exchange Functional    Exchange        .... WB97X-D3
 Correlation Functional Correlation     .... WB97X-D3
 Gradients option       PostSCFGGA      .... off
 Hybrid DFT is turned on
   Fraction HF Exchange ScalHFX         ....  0.195728
   Scaling of DF-GGA-X  ScalDFX         ....  0.000000
   Scaling of DF-GGA-C  ScalDFC         ....  1.000000
   Scaling of DF-LDA-C  ScalLDAC        ....  1.000000
   Perturbative correction              ....  0.000000
   Density functional embedding theory  .... OFF
 Long-range corrected/Screened/Range-Separated Hybrid DFT is turned on
   Amount of maximum screened exact exchange              ....  0.804272
   Range separation parameter mu (erf(mu*r12)/r12)        ....  0.250000


General Settings:
 Integral files         IntName         .... 17-80_DFT_A
 Hartree-Fock type      HFTyp           .... RHF
 Total Charge           Charge          ....    0
 Multiplicity           Mult            ....    1
 Number of Electrons    NEL             ....   18
 Basis Dimension        Dim             ....  172
 Nuclear Repulsion      ENuc            ....     40.7270226961 Eh

Convergence Acceleration:
 DIIS                   CNVDIIS         .... on
   Start iteration      DIISMaxIt       ....    12
   Startup error        DIISStart       ....  0.200000
   # of expansion vecs  DIISMaxEq       ....     5
   Bias factor          DIISBfac        ....   1.050
   Max. coefficient     DIISMaxC        ....  10.000
 Newton-Raphson         CNVNR           .... off
 SOSCF                  CNVSOSCF        .... on
   Start iteration      SOSCFMaxIt      ....   150
   Startup grad/error   SOSCFStart      ....  0.003300
 Level Shifting         CNVShift        .... on
   Level shift para.    LevelShift      ....    0.2500
   Turn off err/grad.   ShiftErr        ....    0.0010
 Zerner damping         CNVZerner       .... off
 Static damping         CNVDamp         .... on
   Fraction old density DampFac         ....    0.7000
   Max. Damping (<1)    DampMax         ....    0.9800
   Min. Damping (>=0)   DampMin         ....    0.0000
   Turn off err/grad.   DampErr         ....    0.1000
 Fernandez-Rico         CNVRico         .... off

SCF Procedure:
 Maximum # iterations   MaxIter         ....  1000
 SCF integral mode      SCFMode         .... Direct
   Integral package                     .... LIBINT
 Reset frequency        DirectResetFreq ....    20
 Integral Threshold     Thresh          ....  2.500e-11 Eh
 Primitive CutOff       TCut            ....  2.500e-12 Eh

Convergence Tolerance:
 Convergence Check Mode ConvCheckMode   .... Total+1el-Energy
 Convergence forced     ConvForced      .... 0
 Energy Change          TolE            ....  1.000e-08 Eh
 1-El. energy change                    ....  1.000e-05 Eh
 Orbital Gradient       TolG            ....  1.000e-05
 Orbital Rotation angle TolX            ....  1.000e-05
 DIIS Error             TolErr          ....  5.000e-07


Diagonalization of the overlap matrix:
Smallest eigenvalue                        ... 1.423e-03
Time for diagonalization                   ...    0.004 sec
Threshold for overlap eigenvalues          ... 1.000e-08
Number of eigenvalues below threshold      ... 0
Time for construction of square roots      ...    0.009 sec
Total time needed                          ...    0.014 sec

-------------------
DFT GRID GENERATION
-------------------

General Integration Accuracy     IntAcc      ...  4.340
Radial Grid Type                 RadialGrid  ... Gauss-Chebyshev
Angular Grid (max. acc.)         AngularGrid ... Lebedev-110
Angular grid pruning method      GridPruning ... 3 (G Style)
Weight generation scheme         WeightScheme... Becke
Basis function cutoff            BFCut       ...    1.0000e-11
Integration weight cutoff        WCut        ...    1.0000e-14
Grids for H and He will be reduced by one unit

# of grid points (after initial pruning)     ...  13096 (   0.0 sec)
# of grid points (after weights+screening)   ...  12530 (   0.0 sec)
nearest neighbour list constructed           ...    0.0 sec
Grid point re-assignment to atoms done       ...    0.0 sec
Grid point division into batches done        ...    0.0 sec
Reduced shell lists constructed in    0.0 sec

Total number of grid points                  ...    12530
Total number of batches                      ...      203
Average number of points per batch           ...       61
Average number of grid points per atom       ...     1044
Average number of shells per batch           ...    48.11 (63.30%)
Average number of basis functions per batch  ...   103.37 (60.10%)
Average number of large shells per batch     ...    39.41 (81.91%)
Average number of large basis fcns per batch ...    87.19 (84.34%)
Maximum spatial batch extension              ...  15.72, 15.27, 12.80 au
Average spatial batch extension              ...   0.37,  0.36,  0.35 au

Time for grid setup =    0.052 sec

------------------------------
INITIAL GUESS: MODEL POTENTIAL
------------------------------
Loading Hartree-Fock densities                     ... done
Calculating cut-offs                               ... done
Setting up the integral package                    ... done
Initializing the effective Hamiltonian             ... done
Starting the Coulomb interaction                   ... done (   0.0 sec)
Reading the grid                                   ... done
Mapping shells                                     ... done
Starting the XC term evaluation                    ... done (   0.0 sec)
  promolecular density results
     # of electrons  =     17.997248242
     EX              =    -14.430759698
     EC              =     -0.575859608
     EX+EC           =    -15.006619306
Transforming the Hamiltonian                       ... done (   0.0 sec)
Diagonalizing the Hamiltonian                      ... done (   0.0 sec)
Back transforming the eigenvectors                 ... done (   0.0 sec)
Now organizing SCF variables                       ... done
                      ------------------
                      INITIAL GUESS DONE (   0.2 sec)
                      ------------------
--------------
SCF ITERATIONS
--------------
ITER       Energy         Delta-E        Max-DP      RMS-DP      [F,P]     Damp
               ***  Starting incremental Fock matrix formation  ***
  0   -115.6464899555   0.000000000000 0.03702262  0.00075093  0.2471856 0.7000
  1   -115.6841888709  -0.037698915397 0.02174796  0.00052931  0.1225560 0.7000
                               ***Turning on DIIS***
  2   -115.7014130662  -0.017224195325 0.03015334  0.00095128  0.0464037 0.0000
  3   -115.7292776459  -0.027864579683 0.01741235  0.00034537  0.0612016 0.0000
  4   -115.7339468363  -0.004669190408 0.00412214  0.00006811  0.0062524 0.0000
                      *** Initiating the SOSCF procedure ***
                           *** Shutting down DIIS ***
                      *** Re-Reading the Fockian *** 
                      *** Removing any level shift *** 
ITER      Energy       Delta-E        Grad      Rot      Max-DP    RMS-DP
  5   -115.73404211  -0.0000952777  0.000426  0.000426  0.000728  0.000023
               *** Restarting incremental Fock matrix formation ***
  6   -115.73405064  -0.0000085211  0.000146  0.000168  0.000439  0.000014
  7   -115.73405139  -0.0000007533  0.000041  0.000081  0.000196  0.000006
  8   -115.73405145  -0.0000000569  0.000017  0.000013  0.000035  0.000001
  9   -115.73405145  -0.0000000094  0.000008  0.000008  0.000019  0.000001
                  ***Gradient check signals convergence***
              ***Rediagonalizing the Fockian in SOSCF/NRSCF***

               *****************************************************
               *                     SUCCESS                       *
               *           SCF CONVERGED AFTER  10 CYCLES          *
               *****************************************************

Setting up the final grid:

General Integration Accuracy     IntAcc      ...  4.670
Radial Grid Type                 RadialGrid  ... Gauss-Chebyshev
Angular Grid (max. acc.)         AngularGrid ... Lebedev-302
Angular grid pruning method      GridPruning ... 3 (G Style)
Weight generation scheme         WeightScheme... Becke
Basis function cutoff            BFCut       ...    1.0000e-11
Integration weight cutoff        WCut        ...    1.0000e-14
Grids for H and He will be reduced by one unit

# of grid points (after initial pruning)     ...  52000 (   0.0 sec)
# of grid points (after weights+screening)   ...  49263 (   0.0 sec)
nearest neighbour list constructed           ...    0.0 sec
Grid point re-assignment to atoms done       ...    0.0 sec
Grid point division into batches done        ...    0.2 sec
Reduced shell lists constructed in    0.2 sec

Total number of grid points                  ...    49263
Total number of batches                      ...      776
Average number of points per batch           ...       63
Average number of grid points per atom       ...     4105
Average number of shells per batch           ...    46.57 (61.28%)
Average number of basis functions per batch  ...   100.22 (58.27%)
Average number of large shells per batch     ...    37.78 (81.11%)
Average number of large basis fcns per batch ...    83.35 (83.16%)
Maximum spatial batch extension              ...  14.28, 16.95, 13.13 au
Average spatial batch extension              ...   0.24,  0.26,  0.23 au

Final grid set up in    0.3 sec
Final integration                            ... done (   0.1 sec)
Change in XC energy                          ...    -0.000172690
Integrated number of electrons               ...    17.999972030
Previous integrated no of electrons          ...    17.999416338

----------------
TOTAL SCF ENERGY
----------------

Total Energy       :         -115.73422415 Eh           -3149.28835 eV

Components:
Nuclear Repulsion  :           40.72702270 Eh            1108.23863 eV
Electronic Energy  :         -156.46124684 Eh           -4257.52698 eV
One Electron Energy:         -237.86757181 Eh           -6472.70570 eV
Two Electron Energy:           81.40632497 Eh            2215.17872 eV

Virial components:
Potential Energy   :         -230.98951045 Eh           -6285.54413 eV
Kinetic Energy     :          115.25528630 Eh            3136.25578 eV
Virial Ratio       :            2.00415545


DFT components:
N(Alpha)           :        8.999986014956 electrons
N(Beta)            :        8.999986014956 electrons
N(Total)           :       17.999972029912 electrons
E(XC)              :      -10.653118753959 Eh       
DFET-embed. en.    :        0.000000000000 Eh       

---------------
SCF CONVERGENCE
---------------

  Last Energy change         ...   -1.9614e-09  Tolerance :   1.0000e-08
  Last MAX-Density change    ...    3.1900e-06  Tolerance :   1.0000e-07
  Last RMS-Density change    ...    9.8606e-08  Tolerance :   5.0000e-09
  Last Orbital Gradient      ...    1.9590e-06  Tolerance :   1.0000e-05
  Last Orbital Rotation      ...    2.5975e-06  Tolerance :   1.0000e-05

             **** THE GBW FILE WAS UPDATED (17-80_DFT_A.gbw) ****
             **** DENSITY FILE WAS UPDATED (17-80_DFT_A.scfp.tmp) ****
             **** ENERGY FILE WAS UPDATED (17-80_DFT_A.en.tmp) ****
----------------
ORBITAL ENERGIES
----------------

  NO   OCC          E(Eh)            E(eV) 
   0   2.0000     -19.229345      -523.2571 
   1   2.0000     -10.313651      -280.6487 
   2   2.0000      -1.143481       -31.1157 
   3   2.0000      -0.787818       -21.4376 
   4   2.0000      -0.613828       -16.7031 
   5   2.0000      -0.550339       -14.9755 
   6   2.0000      -0.521082       -14.1794 
   7   2.0000      -0.431132       -11.7317 
   8   2.0000      -0.372299       -10.1308 
   9   0.0000       0.086930         2.3655 
  10   0.0000       0.115709         3.1486 
  11   0.0000       0.157319         4.2809 
  12   0.0000       0.160476         4.3668 
  13   0.0000       0.191576         5.2131 
  14   0.0000       0.200692         5.4611 
  15   0.0000       0.216358         5.8874 
  16   0.0000       0.226588         6.1658 
  17   0.0000       0.243440         6.6243 
  18   0.0000       0.275332         7.4922 
  19   0.0000       0.306744         8.3469 
  20   0.0000       0.330505         8.9935 
  21   0.0000       0.335339         9.1250 
  22   0.0000       0.356333         9.6963 
  23   0.0000       0.401735        10.9318 
  24   0.0000       0.421625        11.4730 
  25   0.0000       0.451429        12.2840 
  26   0.0000       0.481365        13.0986 
  27   0.0000       0.493714        13.4346 
  28   0.0000       0.522101        14.2071 
  29   0.0000       0.538213        14.6455 
  30   0.0000       0.544238        14.8095 
  31   0.0000       0.565161        15.3788 
  32   0.0000       0.592233        16.1155 
  33   0.0000       0.599237        16.3061 
  34   0.0000       0.634329        17.2610 
  35   0.0000       0.670269        18.2389 
  36   0.0000       0.671354        18.2685 
  37   0.0000       0.704715        19.1763 
  38   0.0000       0.779952        21.2236 
  39   0.0000       0.795774        21.6541 
  40   0.0000       0.829286        22.5660 
  41   0.0000       0.851964        23.1831 
  42   0.0000       0.893251        24.3066 
  43   0.0000       0.915446        24.9106 
  44   0.0000       1.003689        27.3118 
  45   0.0000       1.039570        28.2881 
  46   0.0000       1.085715        29.5438 
  47   0.0000       1.127361        30.6771 
  48   0.0000       1.160979        31.5918 
  49   0.0000       1.181413        32.1479 
  50   0.0000       1.201116        32.6840 
  51   0.0000       1.214804        33.0565 
  52   0.0000       1.236038        33.6343 
  53   0.0000       1.371782        37.3281 
  54   0.0000       1.389692        37.8154 
  55   0.0000       1.405483        38.2451 
  56   0.0000       1.471719        40.0475 
  57   0.0000       1.502516        40.8855 
  58   0.0000       1.538159        41.8554 
  59   0.0000       1.575237        42.8644 
  60   0.0000       1.610255        43.8173 
  61   0.0000       1.617270        44.0082 
  62   0.0000       1.649228        44.8778 
  63   0.0000       1.670083        45.4453 
  64   0.0000       1.706172        46.4273 
  65   0.0000       1.776907        48.3521 
  66   0.0000       1.823439        49.6183 
  67   0.0000       1.919834        52.2413 
  68   0.0000       1.935181        52.6590 
  69   0.0000       1.960248        53.3411 
  70   0.0000       2.044627        55.6371 
  71   0.0000       2.061924        56.1078 
  72   0.0000       2.083980        56.7080 
  73   0.0000       2.096044        57.0362 
  74   0.0000       2.131789        58.0089 
  75   0.0000       2.165499        58.9262 
  76   0.0000       2.192052        59.6488 
  77   0.0000       2.237155        60.8761 
  78   0.0000       2.272098        61.8269 
  79   0.0000       2.339043        63.6486 
  80   0.0000       2.363791        64.3220 
  81   0.0000       2.372041        64.5465 
  82   0.0000       2.383688        64.8634 
  83   0.0000       2.412610        65.6505 
  84   0.0000       2.475622        67.3651 
  85   0.0000       2.497388        67.9574 
  86   0.0000       2.591908        70.5294 
  87   0.0000       2.618234        71.2458 
  88   0.0000       2.658556        72.3430 
  89   0.0000       2.663026        72.4646 
  90   0.0000       2.705834        73.6295 
  91   0.0000       2.710785        73.7642 
  92   0.0000       2.828634        76.9711 
  93   0.0000       2.841527        77.3219 
  94   0.0000       2.889488        78.6270 
  95   0.0000       2.911018        79.2128 
  96   0.0000       2.937598        79.9361 
  97   0.0000       3.016316        82.0781 
  98   0.0000       3.059892        83.2639 
  99   0.0000       3.102560        84.4249 
 100   0.0000       3.123577        84.9969 
 101   0.0000       3.147269        85.6415 
 102   0.0000       3.184783        86.6624 
 103   0.0000       3.200370        87.0865 
 104   0.0000       3.276811        89.1666 
 105   0.0000       3.334530        90.7372 
 106   0.0000       3.357580        91.3644 
 107   0.0000       3.419683        93.0543 
 108   0.0000       3.427329        93.2624 
 109   0.0000       3.473750        94.5255 
 110   0.0000       3.488692        94.9321 
 111   0.0000       3.623324        98.5957 
 112   0.0000       3.649269        99.3017 
 113   0.0000       3.655826        99.4801 
 114   0.0000       3.664190        99.7077 
 115   0.0000       3.687454       100.3407 
 116   0.0000       3.814988       103.8111 
 117   0.0000       3.984703       108.4293 
 118   0.0000       4.115047       111.9761 
 119   0.0000       4.208410       114.5166 
 120   0.0000       4.220461       114.8446 
 121   0.0000       4.229675       115.0953 
 122   0.0000       4.286408       116.6391 
 123   0.0000       4.308527       117.2410 
 124   0.0000       4.341171       118.1293 
 125   0.0000       4.472170       121.6939 
 126   0.0000       4.510766       122.7442 
 127   0.0000       4.547771       123.7511 
 128   0.0000       4.560025       124.0846 
 129   0.0000       4.587870       124.8423 
 130   0.0000       4.620686       125.7353 
 131   0.0000       4.980077       135.5148 
 132   0.0000       5.050975       137.4440 
 133   0.0000       5.140738       139.8866 
 134   0.0000       5.360193       145.8583 
 135   0.0000       5.363471       145.9475 
 136   0.0000       5.414897       147.3468 
 137   0.0000       5.453943       148.4093 
 138   0.0000       5.545023       150.8877 
 139   0.0000       5.693316       154.9230 
 140   0.0000       5.829972       158.6416 
 141   0.0000       5.876038       159.8951 
 142   0.0000       6.026132       163.9794 
 143   0.0000       6.037408       164.2862 
 144   0.0000       6.175469       168.0431 
 145   0.0000       6.344909       172.6538 
 146   0.0000       6.539719       177.9548 
 147   0.0000       6.615688       180.0220 
 148   0.0000       6.683794       181.8753 
 149   0.0000       6.761696       183.9951 
 150   0.0000       6.826899       185.7694 
 151   0.0000       6.878524       187.1742 
 152   0.0000       7.042421       191.6340 
 153   0.0000       7.179985       195.3773 
 154   0.0000       7.220679       196.4847 
 155   0.0000       7.316000       199.0785 
 156   0.0000       7.513380       204.4495 
 157   0.0000       8.107729       220.6225 
 158   0.0000       8.892805       241.9855 
 159   0.0000       9.323975       253.7183 
 160   0.0000       9.558862       260.1099 
 161   0.0000       9.568656       260.3764 
 162   0.0000       9.820666       267.2339 
 163   0.0000       9.889421       269.1048 
 164   0.0000       9.956109       270.9195 
 165   0.0000      10.127523       275.5839 
 166   0.0000      11.236534       305.7616 
[...]
  82   0.0000       2.420580        65.8673 
  83   0.0000       2.447718        66.6058 
  84   0.0000       2.531993        68.8990 
  85   0.0000       2.535837        69.0036 
  86   0.0000       2.569429        69.9177 
  87   0.0000       2.600002        70.7497 
  88   0.0000       2.643460        71.9322 
  89   0.0000       2.665080        72.5205 
  90   0.0000       2.673593        72.7522 
  91   0.0000       2.688597        73.1604 
  92   0.0000       2.812996        76.5455 
  93   0.0000       2.860052        77.8260 
  94   0.0000       2.884219        78.4836 
  95   0.0000       2.902308        78.9758 
  96   0.0000       2.986844        81.2762 
  97   0.0000       3.007594        81.8408 
  98   0.0000       3.060655        83.2847 
  99   0.0000       3.094071        84.1940 
 100   0.0000       3.117005        84.8180 
 101   0.0000       3.133313        85.2618 
 102   0.0000       3.171505        86.3010 
 103   0.0000       3.214843        87.4803 
 104   0.0000       3.319680        90.3331 
 105   0.0000       3.329684        90.6053 
 106   0.0000       3.340302        90.8942 
 107   0.0000       3.422817        93.1396 
 108   0.0000       3.484271        94.8118 
 109   0.0000       3.500325        95.2487 
 110   0.0000       3.548785        96.5674 
 111   0.0000       3.558849        96.8412 
 112   0.0000       3.639981        99.0489 
 113   0.0000       3.653193        99.4084 
 114   0.0000       3.658730        99.5591 
 115   0.0000       3.689411       100.3940 
 116   0.0000       3.808834       103.6436 
 117   0.0000       4.008144       109.0671 
 118   0.0000       4.095381       111.4410 
 119   0.0000       4.194067       114.1264 
 120   0.0000       4.211982       114.6138 
 121   0.0000       4.231397       115.1422 
 122   0.0000       4.276375       116.3661 
 123   0.0000       4.299692       117.0006 
 124   0.0000       4.312579       117.3512 
 125   0.0000       4.497468       122.3823 
 126   0.0000       4.512973       122.8042 
 127   0.0000       4.544029       123.6493 
 128   0.0000       4.571962       124.4094 
 129   0.0000       4.583703       124.7289 
 130   0.0000       4.611108       125.4746 
 131   0.0000       5.003320       136.1473 
 132   0.0000       5.054289       137.5342 
 133   0.0000       5.079976       138.2332 
 134   0.0000       5.309672       144.4835 
 135   0.0000       5.360420       145.8644 
 136   0.0000       5.377535       146.3302 
 137   0.0000       5.417690       147.4228 
 138   0.0000       5.581681       151.8852 
 139   0.0000       5.781422       157.3205 
 140   0.0000       5.865444       159.6068 
 141   0.0000       5.881877       160.0540 
 142   0.0000       5.929500       161.3499 
 143   0.0000       5.971456       162.4916 
 144   0.0000       6.000842       163.2912 
 145   0.0000       6.364368       173.1833 
 146   0.0000       6.539092       177.9377 
 147   0.0000       6.620696       180.1583 
 148   0.0000       6.731722       183.1795 
 149   0.0000       6.750227       183.6830 
 150   0.0000       6.830363       185.8636 
 151   0.0000       6.848531       186.3580 
 152   0.0000       7.045762       191.7249 
 153   0.0000       7.117589       193.6794 
 154   0.0000       7.224142       196.5789 
 155   0.0000       7.298049       198.5900 
 156   0.0000       7.491893       203.8648 
 157   0.0000       8.062155       219.3824 
 158   0.0000       8.907463       242.3844 
 159   0.0000       9.308368       253.2936 
 160   0.0000       9.536530       259.5022 
 161   0.0000       9.553742       259.9705 
 162   0.0000       9.806899       266.8593 
 163   0.0000       9.883973       268.9566 
 164   0.0000       9.967811       271.2379 
 165   0.0000      10.097966       274.7796 
 166   0.0000      11.227116       305.5054 
 167   0.0000      19.114289       520.1262 
 168   0.0000      22.494160       612.0972 
 169   0.0000      43.730842      1189.9767 
 170   0.0000      65.929327      1794.0282 
 171   0.0000     126.440457      3440.6197 

                    ********************************
                    * MULLIKEN POPULATION ANALYSIS *
                    ********************************

-----------------------
MULLIKEN ATOMIC CHARGES
-----------------------
   0 C :   -0.002467
   1 O :    0.000057
   2 H :   -0.000005
   3 H :    0.001704
   4 H :   -0.000184
   5 H :    0.000027
   6 C :   -0.146341
   7 O :   -0.485551
   8 H :    0.317630
   9 H :    0.100025
  10 H :    0.111231
  11 H :    0.103874
Sum of atomic charges:   -0.0000000

--------------------------------
MULLIKEN REDUCED ORBITAL CHARGES
--------------------------------
  0 C s       :     0.001435  s :     0.001435
      pz      :     0.000457  p :     0.001046
      px      :    -0.000157
      py      :     0.000747
      dz2     :    -0.000001  d :    -0.000014
      dxz     :    -0.000007
      dyz     :     0.000005
      dx2y2   :    -0.000003
      dxy     :    -0.000007
      f0      :    -0.000000  f :    -0.000000
      f+1     :     0.000000
      f-1     :    -0.000000
      f+2     :     0.000000
      f-2     :    -0.000000
      f+3     :    -0.000000
      f-3     :    -0.000000
  1 O s       :    -0.000044  s :    -0.000044
      pz      :    -0.000007  p :    -0.000013
      px      :    -0.000010
      py      :     0.000003
      dz2     :     0.000000  d :     0.000000
      dxz     :     0.000000
      dyz     :    -0.000000
      dx2y2   :     0.000000
      dxy     :     0.000000
      f0      :     0.000000  f :    -0.000000
      f+1     :     0.000000
      f-1     :    -0.000000
      f+2     :    -0.000000
      f-2     :    -0.000000
      f+3     :    -0.000000
      f-3     :    -0.000000
  2 H s       :     0.000005  s :     0.000005
      pz      :    -0.000000  p :     0.000000
      px      :    -0.000000
      py      :     0.000000
  3 H s       :    -0.001701  s :    -0.001701
      pz      :    -0.000000  p :    -0.000003
      px      :    -0.000001
      py      :    -0.000002
  4 H s       :     0.000183  s :     0.000183
      pz      :    -0.000000  p :     0.000000
      px      :     0.000000
      py      :    -0.000000
  5 H s       :    -0.000027  s :    -0.000027
      pz      :    -0.000000  p :     0.000000
      px      :     0.000000
      py      :     0.000000
  6 C s       :     3.223688  s :     3.223688
      pz      :     0.878943  p :     2.815397
      px      :     0.951828
      py      :     0.984627
      dz2     :     0.028693  d :     0.099104
      dxz     :     0.014531
      dyz     :     0.011056
      dx2y2   :     0.024464
      dxy     :     0.020360
      f0      :     0.000953  f :     0.008152
      f+1     :     0.002110
      f-1     :     0.000668
      f+2     :     0.001494
      f-2     :     0.001057
      f+3     :     0.000842
      f-3     :     0.001028
  7 O s       :     3.780786  s :     3.780786
      pz      :     1.667252  p :     4.672355
      px      :     1.227262
      py      :     1.777841
      dz2     :     0.006528  d :     0.030622
      dxz     :     0.007327
      dyz     :     0.005449
      dx2y2   :     0.005987
      dxy     :     0.005330
      f0      :     0.000228  f :     0.001789
      f+1     :     0.000226
      f-1     :     0.000148
      f+2     :     0.000288
      f-2     :     0.000268
      f+3     :     0.000367
      f-3     :     0.000263
  8 H s       :     0.635038  s :     0.635038
      pz      :     0.013296  p :     0.047332
      px      :     0.018151
      py      :     0.015884
  9 H s       :     0.879595  s :     0.879595
      pz      :     0.004227  p :     0.020381
      px      :     0.004051
      py      :     0.012103
 10 H s       :     0.870556  s :     0.870556
      pz      :     0.003046  p :     0.018213
      px      :     0.010095
      py      :     0.005073
 11 H s       :     0.875319  s :     0.875319
      pz      :     0.010660  p :     0.020808
      px      :     0.005667
      py      :     0.004480


                     *******************************
                     * LOEWDIN POPULATION ANALYSIS *
                     *******************************

----------------------
LOEWDIN ATOMIC CHARGES
----------------------
   0 C :   -0.002148
   1 O :   -0.000011
   2 H :   -0.000003
   3 H :   -0.001132
   4 H :   -0.000623
   5 H :   -0.000014
   6 C :   -0.392361
   7 O :   -0.069446
   8 H :    0.170363
   9 H :    0.091262
  10 H :    0.116870
  11 H :    0.087243

-------------------------------
LOEWDIN REDUCED ORBITAL CHARGES
-------------------------------
  0 C s       :     0.000251  s :     0.000251
      pz      :     0.000446  p :     0.001858
      px      :     0.000434
      py      :     0.000978
      dz2     :     0.000004  d :     0.000038
      dxz     :     0.000007
      dyz     :     0.000004
      dx2y2   :     0.000007
      dxy     :     0.000016
      f0      :     0.000000  f :     0.000001
      f+1     :     0.000000
      f-1     :     0.000000
      f+2     :     0.000000
      f-2     :     0.000000
      f+3     :     0.000000
      f-3     :     0.000000
  1 O s       :     0.000003  s :     0.000003
      pz      :     0.000002  p :     0.000007
      px      :     0.000002
      py      :     0.000003
      dz2     :     0.000000  d :     0.000000
      dxz     :     0.000000
      dyz     :     0.000000
      dx2y2   :     0.000000
      dxy     :     0.000000
      f0      :     0.000000  f :     0.000000
      f+1     :     0.000000
      f-1     :     0.000000
      f+2     :     0.000000
      f-2     :     0.000000
      f+3     :     0.000000
      f-3     :     0.000000
  2 H s       :     0.000003  s :     0.000003
      pz      :     0.000000  p :     0.000000
      px      :     0.000000
      py      :     0.000000
  3 H s       :     0.001126  s :     0.001126
      pz      :     0.000001  p :     0.000007
      px      :     0.000003
      py      :     0.000003
  4 H s       :     0.000621  s :     0.000621
      pz      :     0.000001  p :     0.000002
      px      :     0.000000
      py      :     0.000001
  5 H s       :     0.000013  s :     0.000013
      pz      :     0.000000  p :     0.000001
      px      :     0.000000
      py      :     0.000000
  6 C s       :     2.857455  s :     2.857455
      pz      :     0.986893  p :     3.047772
      px      :     1.009399
      py      :     1.051480
      dz2     :     0.122743  d :     0.424425
      dxz     :     0.078073
      dyz     :     0.051134
      dx2y2   :     0.090552
      dxy     :     0.081923
      f0      :     0.005837  f :     0.062708
      f+1     :     0.015311
      f-1     :     0.006495
      f+2     :     0.011643
      f-2     :     0.011375
      f+3     :     0.005166
      f-3     :     0.006882
  7 O s       :     3.348885  s :     3.348885
      pz      :     1.654846  p :     4.640540
      px      :     1.266953
      py      :     1.718741
      dz2     :     0.017639  d :     0.075108
      dxz     :     0.016249
      dyz     :     0.010183
      dx2y2   :     0.018610
      dxy     :     0.012426
      f0      :     0.000660  f :     0.004913
      f+1     :     0.000746
      f-1     :     0.000473
      f+2     :     0.000946
      f-2     :     0.000829
      f+3     :     0.000711
      f-3     :     0.000549
  8 H s       :     0.672474  s :     0.672474
      pz      :     0.041372  p :     0.157163
      px      :     0.069618
      py      :     0.046173
  9 H s       :     0.845611  s :     0.845611
      pz      :     0.013638  p :     0.063127
      px      :     0.013299
      py      :     0.036190
 10 H s       :     0.831939  s :     0.831939
      pz      :     0.008815  p :     0.051191
      px      :     0.027198
      py      :     0.015178
 11 H s       :     0.844485  s :     0.844485
      pz      :     0.033402  p :     0.068272
      px      :     0.019439
      py      :     0.015431


                      *****************************
                      * MAYER POPULATION ANALYSIS *
                      *****************************

  NA   - Mulliken gross atomic population
  ZA   - Total nuclear charge
  QA   - Mulliken gross atomic charge
  VA   - Mayer's total valence
  BVA  - Mayer's bonded valence
  FA   - Mayer's free valence

  ATOM       NA         ZA         QA         VA         BVA        FA
  0 C      0.0025     0.0000    -0.0025     0.0049     0.0049    -0.0000
  1 O     -0.0001     0.0000     0.0001    -0.0001    -0.0001     0.0000
  2 H      0.0000     0.0000    -0.0000     0.0000     0.0000    -0.0000
  3 H     -0.0017     0.0000     0.0017    -0.0034    -0.0034     0.0000
  4 H      0.0002     0.0000    -0.0002     0.0004     0.0004    -0.0000
  5 H     -0.0000     0.0000     0.0000    -0.0001    -0.0001    -0.0000
  6 C      6.1463     6.0000    -0.1463     3.9434     3.9434    -0.0000
  7 O      8.4856     8.0000    -0.4856     1.8651     1.8651    -0.0000
  8 H      0.6824     1.0000     0.3176     0.9105     0.9105    -0.0000
  9 H      0.9000     1.0000     0.1000     0.9598     0.9598    -0.0000
 10 H      0.8888     1.0000     0.1112     0.9585     0.9585     0.0000
 11 H      0.8961     1.0000     0.1039     0.9687     0.9687    -0.0000

  Mayer bond orders larger than 0.1
B(  6-C ,  7-O ) :   0.9915 B(  6-C ,  9-H ) :   0.9787 B(  6-C , 10-H ) :   0.9671 
B(  6-C , 11-H ) :   0.9952 B(  7-O ,  8-H ) :   0.8958 

-------
TIMINGS
-------

Total SCF time: 0 days 0 hours 0 min 15 sec 

Total time                  ....      15.889 sec
Sum of individual times     ....      15.391 sec  ( 96.9%)

Fock matrix formation       ....      14.503 sec  ( 91.3%)
  XC integration            ....       7.212 sec  ( 49.7% of F)
    Basis function eval.    ....       0.054 sec  (  0.7% of XC)
    Density eval.           ....       0.074 sec  (  1.0% of XC)
    XC-Functional eval.     ....       0.099 sec  (  1.4% of XC)
    XC-Potential eval.      ....       0.057 sec  (  0.8% of XC)
Diagonalization             ....       0.133 sec  (  0.8%)
Density matrix formation    ....       0.005 sec  (  0.0%)
Population analysis         ....       0.153 sec  (  1.0%)
Initial guess               ....       0.101 sec  (  0.6%)
Orbital Transformation      ....       0.000 sec  (  0.0%)
Orbital Orthonormalization  ....       0.000 sec  (  0.0%)
DIIS solution               ....       0.055 sec  (  0.3%)
SOSCF solution              ....       0.064 sec  (  0.4%)
Grid generation             ....       0.377 sec  (  2.4%)


-------------------------------------------------------------------------------
                          DFT DISPERSION CORRECTION                            
                                                                               
                              DFTD3 V3.1  Rev 1                                
                              USING zero damping                               
-------------------------------------------------------------------------------
The omegaB97X-D3 functional is recognized. Fit by Chai et al.
Active option DFTDOPT                   ...         3   

molecular C6(AA) [au] = 208.737358 


            DFT-D V3
 parameters
 s6 scaling factor         :     1.0000 
 rs6 scaling factor        :     1.2810 
 s8 scaling factor         :     1.0000 
 rs8 scaling factor        :     1.0940 
 Damping factor alpha6     :    14.0000 
 Damping factor alpha8     :    16.0000 
 ad hoc parameters k1-k3   :    16.0000     1.3333    -4.0000 

 Edisp/kcal,au: -0.135759465449  -0.000216346456 
 E6   /kcal   :  -0.029808849 
 E8   /kcal   :  -0.105950616 
 % E8         :  78.042894218 

-------------------------   ----------------
Dispersion correction           -0.000216346
-------------------------   ----------------


-------------------------   --------------------
FINAL SINGLE POINT ENERGY      -115.728980754517
-------------------------   --------------------


                            ***************************************
                            *     ORCA property calculations      *
                            ***************************************

                                    ---------------------
                                    Active property flags
                                    ---------------------
   (+) Dipole Moment


------------------------------------------------------------------------------
                       ORCA ELECTRIC PROPERTIES CALCULATION
------------------------------------------------------------------------------

Dipole Moment Calculation                       ... on
Quadrupole Moment Calculation                   ... off
Polarizability Calculation                      ... off
GBWName                                         ... 17-80_DFT_B.gbw
Electron density file                           ... 17-80_DFT_B.scfp.tmp
The origin for moment calculation is the CENTER OF MASS  = ( 0.333732, -0.329146 -11.398016)

-------------
DIPOLE MOMENT
-------------
                                X             Y             Z
Electronic contribution:     -0.99137      -0.72122       1.17701
Nuclear contribution   :      0.73143       1.07783      -1.69801
                        -----------------------------------------
Total Dipole Moment    :     -0.25994       0.35662      -0.52099
                        -----------------------------------------
Magnitude (a.u.)       :      0.68277
Magnitude (Debye)      :      1.73547



--------------------
Rotational spectrum 
--------------------
 
Rotational constants in cm-1:     4.314413     0.857729     0.831712 
Rotational constants in MHz : 129342.835266 25714.078535 24934.090031 

 Dipole components along the rotational axes: 
x,y,z [a.u.] :     0.283201     0.617257    -0.070490 
x,y,z [Debye]:     0.719839     1.568943    -0.179172 

 
------------------------------------------------------------------------------
                      ORCA CHELPG CHARGES GENERATION
------------------------------------------------------------------------------

GBW file                           ... 17-80_DFT_B.gbw

Reading the GBW file               ... done

Grid spacing                       ...     0.300000
Point Cut-Off                      ...     2.800000
Van-der-Waals Radii                ...        COSMO
Total charge                       ...            0


Number of points X direction       ...           30
Number of points Y direction       ...           34
Number of points Z direction       ...           34
Maximum number of possible points  ...        34680
Final number of points             ...         5949


CHELPG Charges            
--------------------------------
  0   C   :      -0.015535
  1   O   :       0.072109
  2   H   :      -0.082936
  3   H   :      -0.004609
  4   H   :      -0.022319
  5   H   :       0.042199
  6   C   :       0.086075
  7   O   :      -0.608284
  8   H   :       0.401609
  9   H   :       0.036079
 10   H   :       0.068898
 11   H   :       0.026714
--------------------------------
Total charge:    -0.000000
--------------------------------

CHELPG charges calculated...

Timings for individual parts in CHELPG calculation:
Grid generation                 ...        0.001 sec (=   0.000 min)
Potential calculation           ...        1.133 sec (=   0.019 min)
Fit to the potential            ...        0.002 sec (=   0.000 min)
------------------------------------------------------------------------------


Timings for individual modules:

Sum of individual times         ...       18.033 sec (=   0.301 min)
GTO integral calculation        ...        0.652 sec (=   0.011 min)   3.6 %
SCF iterations                  ...       16.217 sec (=   0.270 min)  89.9 %
CHELPG charge generation        ...        1.165 sec (=   0.019 min)   6.5 %



                             ****ORCA TERMINATED NORMALLY****
TOTAL RUN TIME: 0 days 0 hours 1 minutes 10 seconds 410 msec
