LAMMPS data file via vdw_self_gen.py, on 2021-08-05 13:23:08.807070

6500 atoms
9 atom types
6000 bonds
8 bond types
9500 angles
12 angle types
9000 dihedrals
8 dihedral types

-45.3853344766555651  45.3853344766555722 xlo xhi
-45.3853344766555651  45.3853344766555722 ylo yhi
-45.3853344766555651  45.3853344766555722 zlo zhi

Masses

1  1.007940
2  1.007940
3  1.007940
4  1.007940
5  12.011000
6  12.011000
7  12.011000
8  12.011000
9  15.999400

Atoms

1         0    7   -0.1186820000000000  -5.3436729935771305   15.4944505942075708 -27.2618368674380349 0 0 0
2         0    5    0.2337370000000000  -4.8208743011990780   15.1474806445240251 -25.8799066852419877 0 0 0
3         0    9   -0.1880810000000000  -5.8719658955426448   15.3705340992119002 -24.9400554217156234 0 0 0
4         0    6    0.0016420000000000  -5.6062512419457109   15.1048553736905049 -23.6278985171995544 0 0 0
5         0    8   -0.2802680000000000  -4.4762392921358334   14.6570737633907999 -23.0678926652084542 0 0 0
6         0    1    0.0285690000000000  -4.5870052237199426   15.2971370294493578 -28.0263278944761254 0 0 0
7         0    1    0.0285690000000000  -5.6271438230034736   16.5510608250699143 -27.3111822512278231 0 0 0
8         0    1    0.0285690000000000  -6.2420214514702739   14.9124409768865220 -27.4929827532911375 0 0 0
9         0    3   -0.0094320000000000  -3.9621987636051852   15.7873214095068199 -25.6457114461698161 0 0 0
10        0    3   -0.0094320000000000  -4.5159088843443360   14.0947925204955773 -25.8625701500610816 0 0 0
11        0    4    0.0589390000000000  -6.4911871848484015   15.3159941750522961 -23.0364920322685620 0 0 0
12        0    2    0.1129350000000000  -3.5803704896363779   14.4388484572459728 -23.6350018101410555 0 0 0
13        0    2    0.1129350000000000  -4.4317546990296064   14.4977928634429141 -21.9951127258509125 0 0 0
14        1    7   -0.1186820000000000  -25.0426537246276375  3.4561631568704270  -16.4962739836419239 0 0 0
15        1    5    0.2337370000000000  -25.2256254357841172  4.7816940225809885  -15.7800848157783751 0 0 0
16        1    9   -0.1880810000000000  -25.0706464803921634  4.5532384064036391  -14.3794933922280777 0 0 0
17        1    6    0.0016420000000000  -25.1886442606052370  5.6320135026568074  -13.5516854314251152 0 0 0
18        1    8   -0.2802680000000000  -25.4386644504648167  6.9103117023669824  -13.8590704485946308 0 0 0
19        1    1    0.0285690000000000  -25.1078791815209250  3.5858620421125447  -17.5801785579195737 0 0 0
20        1    1    0.0285690000000000  -25.8085236084801259  2.7399810296072413  -16.1804538772576905 0 0 0
21        1    1    0.0285690000000000  -24.0717409417846824  3.0138857287672662  -16.2494691787806786 0 0 0
22        1    3   -0.0094320000000000  -26.2278286564554364  5.1725399218166741  -15.9907871672761246 0 0 0
23        1    3   -0.0094320000000000  -24.4680939486112905  5.4909045999609871  -16.1331048580904941 0 0 0
24        1    4    0.0589390000000000  -25.0448573016760996  5.3097259356323283  -12.5255719476995822 0 0 0
25        1    2    0.1129350000000000  -25.5856543060878252  7.2575024757275450  -14.8737962869555247 0 0 0
26        1    2    0.1129350000000000  -25.5021589237998079  7.6527717195546634  -13.0698127865262883 0 0 0
27        2    7   -0.1186820000000000  -23.4527577024403513 -24.2353276320471487  25.8120899321740822 0 0 0
28        2    5    0.2337370000000000  -24.5163698585255290 -25.1812226556675682  25.2853552428683841 0 0 0
29        2    9   -0.1880810000000000  -25.7909836171448106 -24.5711787423876693  25.4880199193874404 0 0 0
30        2    6    0.0016420000000000  -26.8905050887360453 -25.2625267702521086  25.0684539027967226 0 0 0
31        2    8   -0.2802680000000000  -26.9611803803457910 -26.4631135518364395  24.4813948644191086 0 0 0
32        2    1    0.0285690000000000  -22.4511839456308095 -24.6387777597857962  25.6388753505185889 0 0 0
33        2    1    0.0285690000000000  -23.5846007193950875 -24.0689761805593072  26.8864085401615611 0 0 0
34        2    1    0.0285690000000000  -23.5302556944815926 -23.2569519633101010  25.3263238577587266 0 0 0
35        2    3   -0.0094320000000000  -24.4603403173984333 -26.1301944145096030  25.8311396186445172 0 0 0
36        2    3   -0.0094320000000000  -24.3471944466165624 -25.3563459362768597  24.2166325173712309 0 0 0
37        2    4    0.0589390000000000  -27.7800129949860661 -24.6792499362817637  25.2829688593201176 0 0 0
38        2    2    0.1129350000000000  -26.0896620232874881 -27.0645273687672905  24.2565101119011430 0 0 0
39        2    2    0.1129350000000000  -27.9279244313016086 -26.8745783086085090  24.2087985029686301 0 0 0
40        3    7   -0.1186820000000000   27.0188811780568479  4.9057540016545547   26.2825753200666341 0 0 0
41        3    5    0.2337370000000000   25.5893832485665094  4.8511224389954037   25.7756347819911511 0 0 0
42        3    9   -0.1880810000000000   25.5496825216979353  5.4795008609108518   24.4944512697427470 0 0 0
43        3    6    0.0016420000000000   24.3440948343077856  5.5258243100029105   23.8562054938244934 0 0 0
44        3    8   -0.2802680000000000   23.1553606201871105  5.0620827094778749   24.2598100374329313 0 0 0
45        3    1    0.0285690000000000   27.1113707339858045  4.3954970733570962   27.2453883010595703 0 0 0
46        3    1    0.0285690000000000   27.3448185047885914  5.9444151760584161   26.4015865877220435 0 0 0
47        3    1    0.0285690000000000   27.7017148347965616  4.4377048197357380   25.5657338260607467 0 0 0
48        3    3   -0.0094320000000000   24.9351562464545751  5.3814489034363993   26.4772815337267708 0 0 0
49        3    3   -0.0094320000000000   25.2749903682807435  3.8043470273184052   25.6927185487550531 0 0 0
50        3    4    0.0589390000000000   24.4670727445176546  6.0249366676852620   22.9005820664697772 0 0 0
51        3    2    0.1129350000000000   23.0060515781910766  4.5607884515035106   25.2075583451075786 0 0 0
52        3    2    0.1129350000000000   22.2843938064590716  5.1831718039216579   23.6234451083307526 0 0 0
53        4    7   -0.1186820000000000  -16.0373233069859999  26.1550214736669773  23.5689714483611858 0 0 0
54        4    5    0.2337370000000000  -15.4458408089326955  25.7616743976505198  24.9101888727506591 0 0 0
55        4    9   -0.1880810000000000  -14.9642347994461815  24.4218858336117641  24.8058383279631762 0 0 0
56        4    6    0.0016420000000000  -14.3795151213389296  23.8780784833905209  25.9127808144002607 0 0 0
57        4    8   -0.2802680000000000  -14.1849855858433180  24.4222143558955977  27.1198915564504652 0 0 0
58        4    1    0.0285690000000000  -16.3814741755947821  27.1929407130877578  23.5834324053146496 0 0 0
59        4    1    0.0285690000000000  -16.8833271084874532  25.5068342750893784  23.3172835832480523 0 0 0
60        4    1    0.0285690000000000  -15.2972970803130472  26.0375027454732511  22.7703826309088520 0 0 0
61        4    3   -0.0094320000000000  -16.2219559501403197  25.8254423392772026  25.6816460851798176 0 0 0
62        4    3   -0.0094320000000000  -14.6214398423643583  26.4412952371819578  25.1550057598229451 0 0 0
63        4    4    0.0589390000000000  -14.0619575910589099  22.8656536453327561  25.6856112540578607 0 0 0
64        4    2    0.1129350000000000  -14.4918753322948550  25.4292512524575542  27.3719061399288286 0 0 0
65        4    2    0.1129350000000000  -13.6985560293732185  23.8451764681750262  27.9000323419035112 0 0 0
66        5    7   -0.1186820000000000  -13.9209572026718114 -35.8170109221989321 -3.4020305413923557  0 0 0
67        5    5    0.2337370000000000  -14.8509871838978853 -35.1689660288005896 -4.4112479101296183  0 0 0
68        5    9   -0.1880810000000000  -14.9594777311593035 -36.0404810154168018 -5.5366625937721681  0 0 0
69        5    6    0.0016420000000000  -15.7670360002296714 -35.6420322238150860 -6.5623493914483486  0 0 0
70        5    8   -0.2802680000000000  -16.4928066912134845 -34.5239777557778780 -6.6817354966319389  0 0 0
71        5    1    0.0285690000000000  -13.8395319634019565 -35.2067739429266879 -2.4982019919768521  0 0 0
72        5    1    0.0285690000000000  -12.9214204563017176 -35.9482353213109533 -3.8297247168654041  0 0 0
73        5    1    0.0285690000000000  -14.2828460122749821 -36.8131296808086859 -3.1263904223426051  0 0 0
74        5    3   -0.0094320000000000  -14.4349275995803392 -34.2029362051573216 -4.7198708119520081  0 0 0
75        5    3   -0.0094320000000000  -15.8352941380179431 -35.0204092060622116 -3.9524152196107751  0 0 0
76        5    4    0.0589390000000000  -15.7539910701580510 -36.3992818093739885 -7.3394309456434659  0 0 0
77        5    2    0.1129350000000000  -16.5232307064753243 -33.7537706641967645 -5.9216885288901349  0 0 0
78        5    2    0.1129350000000000  -17.0872759767916271 -34.3591549325603580 -7.5748456734023257  0 0 0
79        6    7   -0.1186820000000000   16.2050281355281989  14.3878051458527629 -13.4821681513540437 0 0 0
80        6    5    0.2337370000000000   15.1921018786321191  14.7163115102032691 -14.5636031303850135 0 0 0
81        6    9   -0.1880810000000000   15.7619428040560585  15.7084876021058584 -15.4172627248773910 0 0 0
82        6    6    0.0016420000000000   15.0072590090729836  16.1374286638425666 -16.4705467034634836 0 0 0
83        6    8   -0.2802680000000000   13.7756182177587654  15.7628147105890477 -16.8362887966092565 0 0 0
84        6    1    0.0285690000000000   15.8322719799667411  13.5967427888595438 -12.8255111000408224 0 0 0
85        6    1    0.0285690000000000   16.4224023195441724  15.2744516080293788 -12.8773356346743633 0 0 0
86        6    1    0.0285690000000000   17.1527464079707990  14.0641910690050764 -13.9252229700214745 0 0 0
87        6    3   -0.0094320000000000   14.2760466009991092  15.0985869808545132 -14.0985488472533724 0 0 0
88        6    3   -0.0094320000000000   14.9677204266253199  13.8090819026574376 -15.1363545167539559 0 0 0
89        6    4    0.0589390000000000   15.5659860914007719  16.8822225589246386 -17.0278248640098582 0 0 0
90        6    2    0.1129350000000000   13.1975481574423466  15.0225163939323405 -16.2981351145434203 0 0 0
91        6    2    0.1129350000000000   13.3131107031767897  16.2091417973177414 -17.7109801781876364 0 0 0
92        7    7   -0.1186820000000000  -17.2204444600245736  35.3916861602227755 -35.4810401027725320 0 0 0
93        7    5    0.2337370000000000  -15.7256581665761601  35.1931232588844267 -35.6531573835169411 0 0 0
94        7    9   -0.1880810000000000  -15.0764705080394528  35.6773977576345303 -34.4776147961284778 0 0 0
95        7    6    0.0016420000000000  -13.7160435063077131  35.5791312614700530 -34.4273428050125148 0 0 0
96        7    8   -0.2802680000000000  -12.8695831557668541  35.0870027903840196 -35.3396784748231170 0 0 0
97        7    1    0.0285690000000000  -17.7684817071063392  34.9939726530962645 -36.3397626593996250 0 0 0
98        7    1    0.0285690000000000  -17.4568473790227543  36.4556094259920584 -35.3742842952305168 0 0 0
99        7    1    0.0285690000000000  -17.5747319491983198  34.8938450120766817 -34.5722892385487057 0 0 0
100       7    3   -0.0094320000000000  -15.3841182237295602  35.7529451230634123 -36.5315179252237670 0 0 0
101       7    3   -0.0094320000000000  -15.5159152269666603  34.1257298012100136 -35.7878268054278763 0 0 0
102       7    4    0.0589390000000000  -13.3656679235109213  35.9801561247200681 -33.4818964252875091 0 0 0
103       7    2    0.1129350000000000  -13.1931727335298579  34.6813100236863221 -36.2896885495130235 0 0 0
104       7    2    0.1129350000000000  -11.8026477923949145  35.0842503159656260 -35.1400602475216601 0 0 0
105       8    7   -0.1186820000000000   26.5404773754940493 -33.8566663719303449 -24.4550606737273810 0 0 0
106       8    5    0.2337370000000000   25.8516521781537953 -35.0106585225436007 -25.1602270448995782 0 0 0
107       8    9   -0.1880810000000000   24.4776393571501174 -35.0093758547169216 -24.7729882253311402 0 0 0
108       8    6    0.0016420000000000   23.6739163549631009 -35.9723519125505149 -25.3111811760419201 0 0 0
109       8    8   -0.2802680000000000   23.9850845405048574 -36.9505908135130667 -26.1698225123693931 0 0 0
110       8    1    0.0285690000000000   27.5899649919854326 -33.7868074546859205 -24.7544279426675189 0 0 0
111       8    1    0.0285690000000000   26.4918871124763449 -33.9862632740283601 -23.3687552437002424 0 0 0
112       8    1    0.0285690000000000   26.0417802857624068 -32.9093657024016153 -24.6855302404897117 0 0 0
113       8    3   -0.0094320000000000   26.3271452442731544 -35.9527580818145367 -24.8637105059107597 0 0 0
114       8    3   -0.0094320000000000   25.9385259881873296 -34.8753924337713315 -26.2444838289496047 0 0 0
115       8    4    0.0589390000000000   22.6651915299612767 -35.8459032717378463 -24.9317898008609973 0 0 0
116       8    2    0.1129350000000000   24.9827766077743121 -37.0981629784682880 -26.5630768484396036 0 0 0
117       8    2    0.1129350000000000   23.2169296536040903 -37.6418630362439117 -26.5019171769023316 0 0 0
118       9    7   -0.1186820000000000   33.8429538165436128 -5.8005407009707293   33.9876319974532919 0 0 0
119       9    5    0.2337370000000000   35.0882808516593627 -5.2604936007562877   34.6665630339804309 0 0 0
120       9    9   -0.1880810000000000   34.7707339839976086 -5.0037448376139571   36.0344485702600892 0 0 0
121       9    6    0.0016420000000000   35.7687229348242468 -4.5184753291215394   36.8291036920302162 0 0 0
122       9    8   -0.2802680000000000   37.0377467236320115 -4.2336413809308331   36.5136830571660980 0 0 0
123       9    1    0.0285690000000000   34.0470140679546489 -6.0562148862926177   32.9441208993072010 0 0 0
124       9    1    0.0285690000000000   33.0371095198896541 -5.0596450951274887   34.0177073826119809 0 0 0
125       9    1    0.0285690000000000   33.4754273553855626 -6.6922490079040031   34.5062591879233267 0 0 0
126       9    3   -0.0094320000000000   35.3991300261070450 -4.3338859050140464   34.1702382790704604 0 0 0
127       9    3   -0.0094320000000000   35.8892212282753178 -6.0056708375546739   34.5982831228513135 0 0 0
128       9    4    0.0589390000000000   35.3850789933780305 -4.3762441063782500   37.8341113797463677 0 0 0
129       9    2    0.1129350000000000   37.4449640004923836 -4.3665813528408055   35.5195417034869649 0 0 0
130       9    2    0.1129350000000000   37.7097762062667812 -3.8492072035527722   37.2744674025185176 0 0 0
131       10   7   -0.1186820000000000   5.3135276553633446  -35.1728705461061466  33.2192158528322139 0 0 0
132       10   5    0.2337370000000000   5.2634388663070499  -34.9671046420387270  34.7220761767260271 0 0 0
133       10   9   -0.1880810000000000   4.6279537794170240  -36.1053461560484621  35.3038250409494125 0 0 0
134       10   6    0.0016420000000000   4.4925829985669621  -36.1216869682442194  36.6618946024774104 0 0 0
135       10   8   -0.2802680000000000   4.8719549772919954  -35.2053772777323246  37.5605020720280791 0 0 0
136       10   1    0.0285690000000000   5.8335091130091437  -34.3450773526208977  32.7290087540218835 0 0 0
137       10   1    0.0285690000000000   4.3013988342809943  -35.2462476242832778  32.8076008483284696 0 0 0
138       10   1    0.0285690000000000   5.8259243441243447  -36.1090369071562449  32.9737861382803885 0 0 0
139       10   3   -0.0094320000000000   4.6909015401221135  -34.0593296617939529  34.9450400499579885 0 0 0
140       10   3   -0.0094320000000000   6.2846525748824700  -34.8667097935318466  35.1074333918017345 0 0 0
141       10   4    0.0589390000000000   3.9991628479312089  -37.0414424594190663  36.9586086707322110 0 0 0
142       10   2    0.1129350000000000   5.3656317880991544  -34.2804982219311754  37.2908765606022570 0 0 0
143       10   2    0.1129350000000000   4.6859549246622922  -35.3754320974999246  38.6162915496681833 0 0 0
144       11   7   -0.1186820000000000  -6.2731066721830198  -13.5749243337051322  34.5991605285584995 0 0 0
145       11   5    0.2337370000000000  -5.1427648919240498  -14.5192051933620405  34.9653555108925218 0 0 0
146       11   9   -0.1880810000000000  -5.6977591339799876  -15.6103052250738443  35.6997592778921558 0 0 0
147       11   6    0.0016420000000000  -4.8393775860718309  -16.5859601712490274  36.1171604621438505 0 0 0
148       11   8   -0.2802680000000000  -3.5158376576694286  -16.6791783126589586  35.9422480053643270 0 0 0
149       11   1    0.0285690000000000  -5.9050019231493982  -12.7414190149480255  33.9944349176054743 0 0 0
150       11   1    0.0285690000000000  -6.7459384795110342  -13.1735236676372303  35.5016700549675832 0 0 0
151       11   1    0.0285690000000000  -7.0521748027768290  -14.1028577514749003  34.0392206020529784 0 0 0
152       11   3   -0.0094320000000000  -4.4082858556447082  -13.9850099953676104  35.5791497183479706 0 0 0
153       11   3   -0.0094320000000000  -4.6658022441599680  -14.8847756916948146  34.0486649465325613 0 0 0
154       11   4    0.0589390000000000  -5.3985528925598834  -17.3448959388845942  36.6545544741289291 0 0 0
155       11   2    0.1129350000000000  -2.9350702052919106  -15.9364867854758092  35.4103321854179001 0 0 0
156       11   2    0.1129350000000000  -2.9769218991359510  -17.5312406506421041  36.3444490245015075 0 0 0
157       12   7   -0.1186820000000000  -13.7986419244977938  36.8969876705206445  14.8152090342688432 0 0 0
158       12   5    0.2337370000000000  -14.4884349853576264  35.5874964297679384  15.1511493128625201 0 0 0
159       12   9   -0.1880810000000000  -15.8760273549303896  35.7271056298611995  14.8462502015932909 0 0 0
160       12   6    0.0016420000000000  -16.6785541372719734  34.6457877113834982  15.0690674522799171 0 0 0
161       12   8   -0.2802680000000000  -16.3565630361137977  33.4381740228355255  15.5476412099249615 0 0 0
162       12   1    0.0285690000000000  -12.7213640345809811  36.8266974837805563  14.9897281585630768 0 0 0
163       12   1    0.0285690000000000  -14.2020770909362373  37.7114262299479179  15.4260656110516319 0 0 0
164       12   1    0.0285690000000000  -13.9717341912909578  37.1679927735310400  13.7684096894473349 0 0 0
165       12   3   -0.0094320000000000  -14.3555834686514476  35.3706220954765485  16.2173966064274495 0 0 0
166       12   3   -0.0094320000000000  -14.0489062671841971  34.7828822488637925  14.5504270199610897 0 0 0
167       12   4    0.0589390000000000  -17.6970813375305518  34.8960504842013819  14.7908162460382471 0 0 0
168       12   2    0.1129350000000000  -15.3489158404383979  33.1633622014362928  15.8321435291891977 0 0 0
169       12   2    0.1129350000000000  -17.1258990633897383  32.6815747267999299  15.6654786605666132 0 0 0
170       13   7   -0.1186820000000000  -16.6990556788027931 -4.4287203196085612   36.5542463375989399 0 0 0
171       13   5    0.2337370000000000  -15.7302503599022234 -4.7011342727875114   35.4181809612303908 0 0 0
172       13   9   -0.1880810000000000  -14.6614633648239181 -5.4976552403731214   35.9291755680981879 0 0 0
173       13   6    0.0016420000000000  -13.6797676715737442 -5.8645908530918636   35.0547746152322759 0 0 0
174       13   8   -0.2802680000000000  -13.5582869158815775 -5.5812768569908879   33.7524622344611487 0 0 0
175       13   1    0.0285690000000000  -17.5623598598022994 -3.8570084445219326   36.2024271935011441 0 0 0
176       13   1    0.0285690000000000  -16.2054889730734679 -3.8655646562960442   37.3532854254253834 0 0 0
177       13   1    0.0285690000000000  -17.0507735377700911 -5.3669363244954118   36.9961047344385037 0 0 0
178       13   3   -0.0094320000000000  -15.3431799506551716 -3.7496616361809814   35.0355014432596192 0 0 0
179       13   3   -0.0094320000000000  -16.2528232064271343 -5.2385959207116857   34.6184876797246233 0 0 0
180       13   4    0.0589390000000000  -12.9431084882012737 -6.4644500202889370   35.5791362022909112 0 0 0
181       13   2    0.1129350000000000  -14.2786164809454394 -4.9857424870098139   33.2063119715607797 0 0 0
182       13   2    0.1129350000000000  -12.7046082443149508 -5.9552572117012490   33.1960653415843439 0 0 0
183       14   7   -0.1186820000000000  -3.1335350654898404  -24.5138476456738950  4.5116482452032836  0 0 0
184       14   5    0.2337370000000000  -4.6144625424994077  -24.7358188414521010  4.7586710038367759  0 0 0
185       14   9   -0.1880810000000000  -4.7713141645802306  -26.0005525327907954  5.4018762895297758  0 0 0
186       14   6    0.0016420000000000  -6.0402473993537473  -26.3871092465753705  5.7233223302820662  0 0 0
187       14   8   -0.2802680000000000  -7.1968663718044548  -25.7455635934867928  5.5191320781390703  0 0 0
188       14   1    0.0285690000000000  -2.9558150176151172  -23.5343235948948859  4.0590186994057351  0 0 0
189       14   1    0.0285690000000000  -2.7349721361279524  -25.2869268199804829  3.8462821507921796  0 0 0
190       14   1    0.0285690000000000  -2.5709430656768064  -24.5791499660864510  5.4488885642757818  0 0 0
191       14   3   -0.0094320000000000  -5.1468690902469714  -24.7303384998686795  3.8005058160055465  0 0 0
192       14   3   -0.0094320000000000  -4.9977097018346113  -23.9350778619702389  5.4016268701603565  0 0 0
193       14   4    0.0589390000000000  -6.0042403736709895  -27.3586492628286067  6.2052625110308348  0 0 0
194       14   2    0.1129350000000000  -7.2600447073490173  -24.7762985844703891  5.0412724564778095  0 0 0
195       14   2    0.1129350000000000  -8.1295746078088573  -26.1993147702114761  5.8390872289188769  0 0 0
196       15   7   -0.1186820000000000  -37.2049054866529332  34.8747013968587183 -24.4347240279607973 0 0 0
197       15   5    0.2337370000000000  -35.7604967657291013  34.8726123948933235 -24.9006818910664727 0 0 0
198       15   9   -0.1880810000000000  -35.4861208559683732  36.1398952831545728 -25.4978240200133364 0 0 0
199       15   6    0.0016420000000000  -34.2248242768280804  36.3472785279775294 -25.9764348573496235 0 0 0
200       15   8   -0.2802680000000000  -33.1735021305905704  35.5191702008243126 -25.9759106149918146 0 0 0
201       15   1    0.0285690000000000  -37.4528878982736089  33.9379625733359376 -23.9278212885403399 0 0 0
202       15   1    0.0285690000000000  -37.8826178510327551  35.0053002801521984 -25.2849391424166470 0 0 0
203       15   1    0.0285690000000000  -37.3891158499136154  35.7087337922916106 -23.7494138263470660 0 0 0
204       15   3   -0.0094320000000000  -35.6169438795483799  34.0702785821520209 -25.6336350377281050 0 0 0
205       15   3   -0.0094320000000000  -35.1028530283853968  34.7109786492218717 -24.0388025524158699 0 0 0
206       15   4    0.0589390000000000  -34.1635620178347992  37.3465779475437714 -26.3948849171866691 0 0 0
207       15   2    0.1129350000000000  -33.2082772905298143  34.5183111131875364 -25.5649510637631359 0 0 0
208       15   2    0.1129350000000000  -32.2300523771188239  35.8443589668128624 -26.4029479805102909 0 0 0
209       16   7   -0.1186820000000000  -16.1498856332131027 -16.5843509030510248 -36.4198839609206928 0 0 0
210       16   5    0.2337370000000000  -15.5962405590838600 -15.3211096754013720 -35.7865306788903013 0 0 0
211       16   9   -0.1880810000000000  -14.6348712283563334 -15.7036642295573543 -34.8030227714838460 0 0 0
212       16   6    0.0016420000000000  -14.0061004153320177 -14.7037878110195273 -34.1190347476553910 0 0 0
213       16   8   -0.2802680000000000  -14.1587744030913214 -13.3787375602694727 -34.2284624313048411 0 0 0
214       16   1    0.0285690000000000  -16.8611363343263854 -16.3430722576232164 -37.2147627835259982 0 0 0
215       16   1    0.0285690000000000  -16.6561166066186068 -17.2003542613732883 -35.6692269672807356 0 0 0
216       16   1    0.0285690000000000  -15.3418863861970252 -17.1930098961762177 -36.8392465890950334 0 0 0
217       16   3   -0.0094320000000000  -16.4142421331038193 -14.7616382742714869 -35.3180944830016514 0 0 0
218       16   3   -0.0094320000000000  -15.1210719153396660 -14.7071146536689170 -36.5602758699513188 0 0 0
219       16   4    0.0589390000000000  -13.3068699339474463 -15.1410676598094120 -33.4138284553940395 0 0 0
220       16   2    0.1129350000000000  -14.8487341259049579 -12.9175633209019356 -34.9235091057366418 0 0 0
221       16   2    0.1129350000000000  -13.5738530576595284 -12.7143122290508543 -33.6002808641657680 0 0 0
222       17   7   -0.1186820000000000  -13.5192882315245786  6.2311623154072784   15.7736201677122363 0 0 0
223       17   5    0.2337370000000000  -14.5637762142976825  5.4417009486234145   15.0060048660158909 0 0 0
224       17   9   -0.1880810000000000  -15.4447047302190779  4.8361631146338162   15.9521315289652605 0 0 0
225       17   6    0.0016420000000000  -16.4714620923915689  4.0834742629924889   15.4600197365445791 0 0 0
226       17   8   -0.2802680000000000  -16.7880063699225452  3.8137146517347373   14.1879853800917139 0 0 0
227       17   1    0.0285690000000000  -12.8439535888964365  6.7529599194884016   15.0898251194400750 0 0 0
228       17   1    0.0285690000000000  -12.9288039913243864  5.5666252775133707   16.4131002263085648 0 0 0
229       17   1    0.0285690000000000  -13.9957388390219837  6.9657387587672668   16.4313327451166487 0 0 0
230       17   3   -0.0094320000000000  -14.0669149907242712  4.6712573637699011   14.4050781646061452 0 0 0
231       17   3   -0.0094320000000000  -15.1218060277906012  6.1213004783505367   14.3516319189530428 0 0 0
232       17   4    0.0589390000000000  -17.0542185838796705  3.6930663713471299   16.2879263717816123 0 0 0
233       17   2    0.1129350000000000  -16.2236585192165492  4.1906236386398730   13.3446188543191582 0 0 0
234       17   2    0.1129350000000000  -17.6474505529647523  3.1888071427898774   13.9665076523192511 0 0 0
235       18   7   -0.1186820000000000   13.2676746292376677  14.2103577370333447  14.7931001955416885 0 0 0
236       18   5    0.2337370000000000   14.6747549946902751  14.5986656232892678  15.2087677042902776 0 0 0
237       18   9   -0.1880810000000000   14.9681085726963286  15.8747582427852176  14.6400866991221701 0 0 0
238       18   6    0.0016420000000000   16.1940313209748439  16.4126068453213598  14.9061271103442685 0 0 0
239       18   8   -0.2802680000000000   17.1965359228370147  15.9114886199726140  15.6375004616283348 0 0 0
240       18   1    0.0285690000000000   12.9773235290028843  13.2563389571019350  15.2419539504893820 0 0 0
241       18   1    0.0285690000000000   13.1994414128120283  14.1223897909952356  13.7036867172672459 0 0 0
242       18   1    0.0285690000000000   12.5487677968013589  14.9787396234698473  15.0963423592865791 0 0 0
243       18   3   -0.0094320000000000   15.3825608765957202  13.8480051627549123  14.8385150879181555 0 0 0
244       18   3   -0.0094320000000000   14.7270147564427578  14.6515704955609198  16.3023520582344439 0 0 0
245       18   4    0.0589390000000000   16.2729308293200070  17.3770106287532577  14.4150537380411752 0 0 0
246       18   2    0.1129350000000000   17.1431505922014331  14.9527750938225878  16.1373347932322382 0 0 0
247       18   2    0.1129350000000000   18.1174874985618573  16.4750759113136986  15.7489618567782301 0 0 0
248       19   7   -0.1186820000000000   35.8604542453265651 -33.3167969459640148 -14.7143883833317304 0 0 0
249       19   5    0.2337370000000000   35.1481292114775528 -34.6297685853503907 -14.9829701539698288 0 0 0
250       19   9   -0.1880810000000000   36.1381399033796384 -35.6279126613085069 -15.2308693561655453 0 0 0
251       19   6    0.0016420000000000   35.7002311836643216 -36.8952064999459495 -15.4861094081733022 0 0 0
252       19   8   -0.2802680000000000   34.4469453945907773 -37.3608151396516917 -15.5454832832166581 0 0 0
253       19   1    0.0285690000000000   35.1442124917300092 -32.5262553559178755 -14.4736249475441205 0 0 0
254       19   1    0.0285690000000000   36.4430157573290501 -33.0098323878687907 -15.5893802134688784 0 0 0
255       19   1    0.0285690000000000   36.5655522761244640 -33.4221809022811271 -13.8831696661965260 0 0 0
256       19   3   -0.0094320000000000   34.4974683502913138 -34.5171052662061371 -15.8579071309229036 0 0 0
257       19   3   -0.0094320000000000   34.5488426225498273 -34.9018065425832376 -14.1064385335727422 0 0 0
258       19   4    0.0589390000000000   36.5568769680155867 -37.5406421671644281 -15.6504981137933825 0 0 0
259       19   2    0.1129350000000000   33.5758285582016143 -36.7384563000034063 -15.3853554909038461 0 0 0
260       19   2    0.1129350000000000   34.2704627457255455 -38.4093809541607030 -15.7635880509146009 0 0 0
261       20   7   -0.1186820000000000  -36.1171322054072448 -37.1937060738644050 -35.7026638156830955 0 0 0
262       20   5    0.2337370000000000  -35.6137551755989321 -35.8949985122037845 -35.0998306029725526 0 0 0
263       20   9   -0.1880810000000000  -35.0429465029424634 -35.1122025517347325 -36.1482936325513222 0 0 0
264       20   6    0.0016420000000000  -34.5371708282866905 -33.8895114393593531 -35.8133867573683773 0 0 0
265       20   8   -0.2802680000000000  -34.4886483665773085 -33.2937001275239979 -34.6160161451940667 0 0 0
266       20   1    0.0285690000000000  -36.6057038318747843 -37.8123368008744549 -34.9446934491054222 0 0 0
267       20   1    0.0285690000000000  -35.2885861884108394 -37.7608648674174034 -36.1397659303140770 0 0 0
268       20   1    0.0285690000000000  -36.8285550759965687 -36.9948143137549081 -36.5110654076922927 0 0 0
269       20   3   -0.0094320000000000  -34.8566100480560053 -36.1176629083480165 -34.3390946987799524 0 0 0
270       20   3   -0.0094320000000000  -36.4536708065737045 -35.3591110778832842 -34.6428588992734845 0 0 0
271       20   4    0.0589390000000000  -34.1434960712969939 -33.4117628653418421 -36.7045822087893043 0 0 0