LAMMPS data file via vdw_self_gen.py, on 2021-08-05 13:24:04.950139

6500 atoms
6 atom types
6000 bonds
5 bond types
10500 angles
8 angle types
12000 dihedrals
5 dihedral types

-39.2094920893514569  39.2094920893514569 xlo xhi
-39.2094920893514569  39.2094920893514569 ylo yhi
-39.2094920893514569  39.2094920893514569 zlo zhi

Masses

1  1.007940
2  1.007940
3  1.007940
4  12.011000
5  12.011000
6  14.006740

Atoms

1         0    5   -0.1832740769230769  -13.6864924635532219 -5.4635350789398380  -21.1202122309604015 0 0 0
2         0    4    0.6058039230769231  -13.2226379087868970 -4.4976586891943535  -22.2062207234017635 0 0 0
3         0    5   -0.1832740769230769  -13.2465269924445046 -3.0576356643088936  -21.7016945947605109 0 0 0
4         0    6   -1.0074770769230770  -11.8737478189381065 -4.8616932964056172  -22.6376095980384022 0 0 0
5         0    1    0.0285689230769231  -14.7082805226279945 -5.2263585080968316  -20.8045107634703648 0 0 0
6         0    1    0.0285689230769231  -13.0422256598935462 -5.4154489585323216  -20.2350467107743199 0 0 0
7         0    1    0.0285689230769231  -13.6831336543689357 -6.4963763339168139  -21.4856734963750142 0 0 0
8         0    2   -0.1057620769230769  -13.8957832772647230 -4.5849174543467122  -23.0659893757152439 0 0 0
9         0    1    0.0285689230769231  -12.5850668981485860 -2.9220613500446984  -20.8385729465753720 0 0 0
10        0    1    0.0285689230769231  -14.2592274710838200 -2.7731071763826431  -21.3962958856569792 0 0 0
11        0    1    0.0285689230769231  -12.9277157352212964 -2.3610645761087170  -22.4850565103214990 0 0 0
12        0    3    0.3512849230769231  -11.2250168533370562 -4.7727250187301591  -21.8563420348836353 0 0 0
13        0    3    0.3512849230769231  -11.5519437981876560 -4.2033509129445319  -23.3464402188270519 0 0 0
14        1    5   -0.1832740769230769  -30.9352378635279450 -29.1556780546845609 -4.5911892569192734  0 0 0
15        1    4    0.6058039230769231  -30.9331455933243475 -30.6448501092840537 -4.2597455843211680  0 0 0
16        1    5   -0.1832740769230769  -29.9248122725927175 -31.3947638700864040 -5.1255844149713052  0 0 0
17        1    6   -1.0074770769230770  -30.6204211392786583 -30.8277553907237198 -2.8431048024843242  0 0 0
18        1    1    0.0285689230769231  -31.1978829660594918 -28.9953696050727920 -5.6425168609986418  0 0 0
19        1    1    0.0285689230769231  -29.9528194582791549 -28.7020817352483455 -4.4179424866107215  0 0 0
20        1    1    0.0285689230769231  -31.6687512437988730 -28.6183409110750517 -3.9799927327463309  0 0 0
21        1    2   -0.1057620769230769  -31.9338520496029616 -31.0488248224156571 -4.4477134917216965  0 0 0
22        1    1    0.0285689230769231  -28.9055648427573217 -31.0233285432757562 -4.9704737919598179  0 0 0
23        1    1    0.0285689230769231  -30.1665638835609506 -31.2778399623383656 -6.1875034560432649  0 0 0
24        1    1    0.0285689230769231  -29.9324169421362818 -32.4667719839428699 -4.8992029620493724  0 0 0
25        1    3    0.3512849230769231  -29.6852286006951616 -30.4727654003318094 -2.6467804588605608  0 0 0
26        1    3    0.3512849230769231  -30.5948342700509066 -31.8231607371853897 -2.6241827182656525  0 0 0
27        2    5   -0.1832740769230769  -31.8334432449613267 -22.1933802159015023  30.1987620895767179 0 0 0
28        2    4    0.6058039230769231  -30.4450416954524066 -21.5728218836616392  30.0773487974341123 0 0 0
29        2    5   -0.1832740769230769  -29.9902130720331996 -20.9887962279839648  31.4118256881403006 0 0 0
30        2    6   -1.0074770769230770  -29.4970833325676480 -22.5869828130281398  29.6180291021419109 0 0 0
31        2    1    0.0285689230769231  -32.5654438660446814 -21.4413238806411677  30.5127005219617722 0 0 0
32        2    1    0.0285689230769231  -31.8499146673636062 -23.0052087017301439  30.9346786536254044 0 0 0
33        2    1    0.0285689230769231  -32.1669796676504518 -22.6006305062204476  29.2379109398792920 0 0 0
34        2    2   -0.1057620769230769  -30.4816595887843178 -20.7711020012904655  29.3317984806890344 0 0 0
35        2    1    0.0285689230769231  -29.9383757521055891 -21.7573346590910823  32.1912808842703484 0 0 0
36        2    1    0.0285689230769231  -30.6862591535075282 -20.2138150921202353  31.7505160820395034 0 0 0
37        2    1    0.0285689230769231  -28.9993787395286127 -20.5296054892004776  31.3229494801559696 0 0 0
38        2    3    0.3512849230769231  -29.4339891313306268 -23.3376445859162018  30.3048130928513686 0 0 0
39        2    3    0.3512849230769231  -28.5637492143347700 -22.1810190329750831  29.5589173128990339 0 0 0
40        3    5   -0.1832740769230769   3.5178193635986013   29.6923525369126118  3.5229113795340927  0 0 0
41        3    4    0.6058039230769231   4.1871823397563963   30.3014063454725253  4.7511211980617896  0 0 0
42        3    5   -0.1832740769230769   5.6606081762944100   30.5926684237206317  4.4809984093214581  0 0 0
43        3    6   -1.0074770769230770   3.4881574304871137   31.5292477831530178  5.1278062270127283  0 0 0
44        3    1    0.0285689230769231   4.0083655367075171   28.7539251213947509  3.2423950380267272  0 0 0
45        3    1    0.0285689230769231   3.5660376994905389   30.3668839630947431  2.6605933786918774  0 0 0
46        3    1    0.0285689230769231   2.4633385412861704   29.4698348131368348  3.7201177031673285  0 0 0
47        3    2   -0.1057620769230769   4.1110488064377559   29.5916003881524183  5.5819762412295528  0 0 0
48        3    1    0.0285689230769231   5.7863599005170077   31.3010719793578147  3.6544152393889742  0 0 0
49        3    1    0.0285689230769231   6.1934140304763918   29.6724241981874641  4.2182141279759469  0 0 0
50        3    1    0.0285689230769231   6.1465902349118053   31.0165337999304960  5.3668129333345149  0 0 0
51        3    3    0.3512849230769231   3.5589656387857320   32.2124596896456694  4.3745772353613077  0 0 0
52        3    3    0.3512849230769231   3.9480453192026488   31.9511220835057976  5.9339939068457959  0 0 0
53        4    5   -0.1832740769230769   29.7788565929858606  13.1101464695455494 -5.5929759177378999  0 0 0
54        4    4    0.6058039230769231   30.3652723762731007  13.5080157900328786 -4.2419358639916913  0 0 0
55        4    5   -0.1832740769230769   30.3829422942204843  12.3201811856796564 -3.2840630427357800  0 0 0
56        4    6   -1.0074770769230770   31.7192909352526726  14.0260966116173815 -4.4325874707124475  0 0 0
57        4    1    0.0285689230769231   28.7519073823241058  12.7474708960939420 -5.4754483586602234  0 0 0
58        4    1    0.0285689230769231   30.3633417226760081  12.3142770932527075 -6.0682432703409805  0 0 0
59        4    1    0.0285689230769231   29.7527017682602590  13.9655707199317831 -6.2770077540545373  0 0 0
60        4    2   -0.1057620769230769   29.7482377553940296  14.3038760983050963 -3.8108725727530723  0 0 0
61        4    1    0.0285689230769231   30.9906452561644947  11.4963126909965165 -3.6749935277494297  0 0 0
62        4    1    0.0285689230769231   29.3682319241705905  11.9409760516111092 -3.1217256699306546  0 0 0
63        4    1    0.0285689230769231   30.7902105218622495  12.6077162820263933 -2.3083766440797273  0 0 0
64        4    3    0.3512849230769231   32.3174063033860932  13.2966871418278725 -4.8190665221292308  0 0 0
65        4    3    0.3512849230769231   32.1224862926948234  14.2704720229353690 -3.5286364030764465  0 0 0
66        5    5   -0.1832740769230769  -31.0506052260598757 -13.7243318704857487  29.3520460046984653 0 0 0
67        5    4    0.6058039230769231  -30.1384736051377722 -12.8907379169653851  30.2468251510068136 0 0 0
68        5    5   -0.1832740769230769  -30.9485152271142674 -12.1257916893649238  31.2896451040886063 0 0 0
69        5    6   -1.0074770769230770  -29.1666814030063080 -13.7656882163956009  30.9011980724388167 0 0 0
70        5    1    0.0285689230769231  -31.7674646278599688 -13.0827079491366796  28.8282117545739958 0 0 0
71        5    1    0.0285689230769231  -31.6198245050187126 -14.4610041147910131  29.9301579353242175 0 0 0
72        5    1    0.0285689230769231  -30.4714535127308856 -14.2631122127163614  28.5940002858437623 0 0 0
73        5    2   -0.1057620769230769  -29.5932098572326865 -12.1737936523395511  29.6234317909678850 0 0 0
74        5    1    0.0285689230769231  -31.5127755526750803 -12.8046713211327230  31.9389690303140483 0 0 0
75        5    1    0.0285689230769231  -31.6642327370567394 -11.4534543799280186  30.8043636602841922 0 0 0
76        5    1    0.0285689230769231  -30.2963480885953871 -11.5150556074968975  31.9238274525819996 0 0 0
77        5    3    0.3512849230769231  -29.6508655298180237 -14.4330723655217117  31.5006230921358608 0 0 0
78        5    3    0.3512849230769231  -28.5710812533590541 -13.2143777575817225  31.5182317914061088 0 0 0
79        6    5   -0.1832740769230769   22.3791272983798457  21.0062607982221223 -31.5384807063415025 0 0 0
80        6    4    0.6058039230769231   21.3806327240104821  21.5380421031286389 -30.5149036830516778 0 0 0
81        6    5   -0.1832740769230769   22.0890415726878473  21.9624161536023479 -29.2316082441911860 0 0 0
82        6    6   -1.0074770769230770   20.6504531145561039  22.6675887156450813 -31.0885623088821283 0 0 0
83        6    1    0.0285689230769231   22.9157508280310935  20.1390067614817774 -31.1386349821149970 0 0 0
84        6    1    0.0285689230769231   23.1221760704251409  21.7647623257971787 -31.8095230322396709 0 0 0
85        6    1    0.0285689230769231   21.8701692251714874  20.6882012895620768 -32.4550690025612099 0 0 0
86        6    2   -0.1057620769230769   20.6619070784885643  20.7456031884260739 -30.2794999285486313 0 0 0
87        6    1    0.0285689230769231   22.8204416039541300  22.7566943327551563 -29.4188647500471383 0 0 0
88        6    1    0.0285689230769231   22.6209817961796738  21.1145587362728229 -28.7866762382500703 0 0 0
89        6    1    0.0285689230769231   21.3717960958547799  22.3309061089236707 -28.4897983843282958 0 0 0
90        6    3    0.3512849230769231   21.2979253705728446  23.4255403393050798 -31.3017177434358196 0 0 0
91        6    3    0.3512849230769231   19.9992623114485077  23.0400842366384815 -30.3981921216724338 0 0 0
92        7    5   -0.1832740769230769  -30.4633286431011179 -4.3068691625205719  -29.0675132885139007 0 0 0
93        7    4    0.6058039230769231  -30.6992980887339364 -3.9321989137929068  -30.5274562049822400 0 0 0
94        7    5   -0.1832740769230769  -29.5531517219505808 -4.4216482502276753  -31.4081215602522654 0 0 0
95        7    6   -1.0074770769230770  -31.9663318391626490 -4.5060093543459301  -30.9785538490537817 0 0 0
96        7    1    0.0285689230769231  -29.5326449094687753 -3.8604216600787469  -28.7007935105967249 0 0 0
97        7    1    0.0285689230769231  -30.3892479194342116 -5.3922972283069530  -28.9361057248646638 0 0 0
98        7    1    0.0285689230769231  -31.2787083509364976 -3.9438037653091285  -28.4321600595947679 0 0 0
99        7    2   -0.1057620769230769  -30.7669070070879300 -2.8415939864592490  -30.6045979014541061 0 0 0
100       7    1    0.0285689230769231  -29.4471556638092657 -5.5114156736862725  -31.3627274083501391 0 0 0
101       7    1    0.0285689230769231  -28.6042489652916530 -3.9785786829063232  -31.0870919536444532 0 0 0
102       7    1    0.0285689230769231  -29.7137414585522066 -4.1405980103417086  -32.4548925421572179 0 0 0
103       7    3    0.3512849230769231  -31.9217677129189497 -5.5232922312083179  -30.9306392114705844 0 0 0
104       7    3    0.3512849230769231  -32.1149988452169950 -4.2772060987683362  -31.9608779107299377 0 0 0
105       8    5   -0.1832740769230769  -22.8276353459770043  12.5495701637590198  20.9565630141986432 0 0 0
106       8    4    0.6058039230769231  -21.7163744417085169  12.6547423692972441  21.9965296981489509 0 0 0
107       8    5   -0.1832740769230769  -20.6031286313183841  13.5799294414584395  21.5133151886869349 0 0 0
108       8    6   -1.0074770769230770  -22.2733804006795459  13.1461220626141326  23.2560583359998567 0 0 0
109       8    1    0.0285689230769231  -22.4362039504022590  12.1535668686757106  20.0131999701686318 0 0 0
110       8    1    0.0285689230769231  -23.2797694404500071  13.5259130961608225  20.7486225747354887 0 0 0
111       8    1    0.0285689230769231  -23.6209100740460514  11.8745984181226945  21.2963609313488433 0 0 0
112       8    2   -0.1057620769230769  -21.2998796970009820  11.6563794717833424  22.1689958316321949 0 0 0
113       8    1    0.0285689230769231  -20.9743946102903536  14.5940154469692089  21.3270895811964536 0 0 0
114       8    1    0.0285689230769231  -20.1684392136398323  13.2051657450464965  20.5803712603557933 0 0 0
115       8    1    0.0285689230769231  -19.7971795676185849  13.6451085993668428  22.2527105994758898 0 0 0
116       8    3    0.3512849230769231  -22.6537716827583928  14.0826022795663732  23.1239466363835682 0 0 0
117       8    3    0.3512849230769231  -21.5285980338706366  13.2400850910359171  23.9459014674292696 0 0 0
118       9    5   -0.1832740769230769  -5.2677039655054241  -13.2512157546182472  29.4091113479960207 0 0 0
119       9    4    0.6058039230769231  -4.3821676335689004  -13.5237806455819527  30.6211453734814185 0 0 0
120       9    5   -0.1832740769230769  -3.0958843555003654  -12.7055888429817863  30.5517111044267367 0 0 0
121       9    6   -1.0074770769230770  -5.1193635884471869  -13.2071859434934851  31.8436149844004781 0 0 0
122       9    1    0.0285689230769231  -4.7438378877074143  -13.5114481978092869  28.4829286510925677 0 0 0
123       9    1    0.0285689230769231  -5.5537319240576490  -12.1951465570953506  29.3473388268414084 0 0 0
124       9    1    0.0285689230769231  -6.1851830338143463  -13.8485686764172229  29.4507757468660252 0 0 0
125       9    2   -0.1057620769230769  -4.1262615780307828  -14.5887559345614815  30.6378976659185476 0 0 0
126       9    1    0.0285689230769231  -3.3032214545938299  -11.6296946196602189  30.5329553543006682 0 0 0
127       9    1    0.0285689230769231  -2.5295649051395594  -12.9539662424443449  29.6476214855397302 0 0 0
128       9    1    0.0285689230769231  -2.4519529377290601  -12.9111239286116284  31.4140425066046767 0 0 0
129       9    3    0.3512849230769231  -5.3553267457239855  -12.2155930664189949  31.8581470160240983 0 0 0
130       9    3    0.3512849230769231  -4.5217330081336220  -13.3657306441623529  32.6542410621724102 0 0 0
131       10   5   -0.1832740769230769  -4.7581873006517030   3.1094584629707231   3.7836720845472849  0 0 0
132       10   4    0.6058039230769231  -4.6015250061610056   4.6052711309685161   4.0395901996587851  0 0 0
133       10   5   -0.1832740769230769  -4.5528733462629605   4.9002889511060062   5.5360463857165296  0 0 0
134       10   6   -1.0074770769230770  -3.3838159698136954   5.0856446111278846   3.3880166786669692  0 0 0
135       10   1    0.0285689230769231  -5.6819446173182229   2.7354873756128630   4.2384126982222163  0 0 0
136       10   1    0.0285689230769231  -3.9224914558296682   2.5382798410707013   4.2035261356550286  0 0 0
137       10   1    0.0285689230769231  -4.8073095074894940   2.8977764320675652   2.7098415566295508  0 0 0
138       10   2   -0.1057620769230769  -5.4578126031148670   5.1291118407549359   3.6010661104989659  0 0 0
139       10   1    0.0285689230769231  -3.7087681784259177   4.3952510262295110   6.0190701849927599  0 0 0
140       10   1    0.0285689230769231  -5.4719003744474666   4.5607061478368820   6.0258013577078717  0 0 0
141       10   1    0.0285689230769231  -4.4551722063660639   5.9756461527311773   5.7219742361739891  0 0 0
142       10   3    0.3512849230769231  -2.5700979297245192   4.6227898553671229   3.7914700857700527  0 0 0
143       10   3    0.3512849230769231  -3.2640345223465448   6.0802211901082117   3.5774453037120768  0 0 0
144       11   5   -0.1832740769230769  -22.6064464058232879 -3.2448210389419434  -22.1447898213191259 0 0 0
145       11   4    0.6058039230769231  -21.6477495237296864 -4.1524224976249062  -21.3801640472567058 0 0 0
146       11   5   -0.1832740769230769  -22.0489504726386336 -5.6173337158749099  -21.5280036097555580 0 0 0
147       11   6   -1.0074770769230770  -20.2862615828694430 -3.9471954768348425  -21.8724591698506181 0 0 0
148       11   1    0.0285689230769231  -23.6289854437122315 -3.3611886343311141  -21.7694986293941106 0 0 0
149       11   1    0.0285689230769231  -22.6138662520791272 -3.4763126943702796  -23.2158951134116407 0 0 0
150       11   1    0.0285689230769231  -22.3276492926108894 -2.1917519677362010  -22.0279481462443094 0 0 0
151       11   2   -0.1057620769230769  -21.6762921838831772 -3.8807535374294906  -20.3193519963646949 0 0 0
152       11   1    0.0285689230769231  -22.0346053611253581 -5.9351823360863829  -22.5766481172056928 0 0 0
153       11   1    0.0285689230769231  -23.0608470577735361 -5.7805749011922902  -21.1417333574599660 0 0 0
154       11   1    0.0285689230769231  -21.3701084809219459 -6.2695687670689280  -20.9674050210344838 0 0 0
155       11   3    0.3512849230769231  -20.2310785503409463 -4.2089901702715125  -22.8561077843514333 0 0 0
156       11   3    0.3512849230769231  -19.6468244822522813 -4.5698372801893337  -21.3796602761122045 0 0 0
157       12   5   -0.1832740769230769  -3.7952580275138303   23.0863850684168526  30.3198793753058915 0 0 0
158       12   4    0.6058039230769231  -4.4923565139610036   21.7573853586234200  30.0454596867592834 0 0 0
159       12   5   -0.1832740769230769  -3.8339410986448597   20.6245510602105711  30.8277379033891101 0 0 0
160       12   6   -1.0074770769230770  -5.9059431180351449   21.8662207879358164  30.4033001442379032 0 0 0
161       12   1    0.0285689230769231  -2.7402988140343165   23.0352593369263481  30.0293312769224237 0 0 0
162       12   1    0.0285689230769231  -3.8381417778045712   23.3530926283709910  31.3819236534903361 0 0 0
163       12   1    0.0285689230769231  -4.2582412541336465   23.8981400216262436  29.7480098937729913 0 0 0
164       12   2   -0.1057620769230769  -4.4228735710115163   21.5378659303014430  28.9745141905138972 0 0 0
165       12   1    0.0285689230769231  -3.8796718402832284   20.8013369215851434  31.9082675369888804 0 0 0
166       12   1    0.0285689230769231  -2.7794886583167044   20.5253919561794582  30.5483016591870644 0 0 0
167       12   1    0.0285689230769231  -4.3240366243419128   19.6667543557715270  30.6205190865373673 0 0 0
168       12   3    0.3512849230769231  -5.9965646037974487   22.0550979390525974  31.4009270251429129 0 0 0
169       12   3    0.3512849230769231  -6.3691171160739586   20.9721837247600931  30.2433596934167035 0 0 0
170       13   5   -0.1832740769230769   13.3093153698222242  3.0615845143011349   3.7994161190962386  0 0 0
171       13   4    0.6058039230769231   13.5125150997244514  4.3937566094190110   4.5146224338452736  0 0 0
172       13   5   -0.1832740769230769   12.7330348691386099  5.5084998651364936   3.8228553784297690  0 0 0
173       13   6   -1.0074770769230770   13.0883851779173739  4.2676365653735715   5.9082972792873099  0 0 0
174       13   1    0.0285689230769231   13.6501208526169702  3.1262581690787616   2.7603588919548514  0 0 0
175       13   1    0.0285689230769231   12.2541403788793701  2.7659531239454420   3.7885622292353940  0 0 0
176       13   1    0.0285689230769231   13.8795974646507041  2.2631473222497198   4.2868693566145453  0 0 0
177       13   2   -0.1057620769230769   14.5791816133104675  4.6426026994499683   4.4991599964383227  0 0 0
178       13   1    0.0285689230769231   11.6568043703370865  5.3022392732367001   3.8142931194657317  0 0 0
179       13   1    0.0285689230769231   13.0614076724382517  5.6208845349873613   2.7839482221180769  0 0 0
180       13   1    0.0285689230769231   12.8895185917201811  6.4689053355951511   4.3264841765341844  0 0 0
181       13   3    0.3512849230769231   12.0930380290027824  4.0512948652227125   5.9486277556476264  0 0 0
182       13   3    0.3512849230769231   13.2007395642977858  5.1631701399560637   6.3824380592847731  0 0 0
183       14   5   -0.1832740769230769  -5.1619674411341521   4.3159913014317857  -22.9640082584885405 0 0 0
184       14   4    0.6058039230769231  -4.7108493261111271   4.2059458696176799  -21.5107790463079880 0 0 0
185       14   5   -0.1832740769230769  -3.2687606885555951   3.7145231363935434  -21.4232137923326960 0 0 0
186       14   6   -1.0074770769230770  -4.8432022446413932   5.5087026138751227  -20.8600643614051116 0 0 0
187       14   1    0.0285689230769231  -5.0994112462560235   3.3421053929790965  -23.4616064295057321 0 0 0
188       14   1    0.0285689230769231  -4.5404489583817993   5.0210964160676586  -23.5274366393068561 0 0 0
189       14   1    0.0285689230769231  -6.2017284455327388   4.6553410540642606  -23.0278289073438138 0 0 0
190       14   2   -0.1057620769230769  -5.3619320841168552   3.4932636143031921  -20.9929797030412004 0 0 0
191       14   1    0.0285689230769231  -2.5784772580450919   4.3987083654486678  -21.9294629291274532 0 0 0
192       14   1    0.0285689230769231  -3.1683051227730492   2.7293650866148500  -21.8913584149222871 0 0 0
193       14   1    0.0285689230769231  -2.9478287359688751   3.6208034029085532  -20.3797929363189887 0 0 0
194       14   3    0.3512849230769231  -4.2331524736694659   6.1864361096201588  -21.3157647137007089 0 0 0
195       14   3    0.3512849230769231  -4.5198689927659705   5.4436506546275174  -19.8953689579591675 0 0 0
196       15   5   -0.1832740769230769   31.2875379510091882 -12.3520050996381698  22.7335951167350565 0 0 0
197       15   4    0.6058039230769231   30.8204922724270141 -13.0205857956188886  21.4442693700830951 0 0 0
198       15   5   -0.1832740769230769   30.0543632602746307 -14.3060759572277405  21.7431757034808157 0 0 0
199       15   6   -1.0074770769230770   29.9786147545603505 -12.0916785060613670  20.6916104013478837 0 0 0
200       15   1    0.0285689230769231   31.9455547588474609 -13.0214636854820096  23.2982277959543040 0 0 0
201       15   1    0.0285689230769231   30.4431589654804000 -12.0877228914535539  23.3801931608354394 0 0 0
202       15   1    0.0285689230769231   31.8497854817030621 -11.4363094169124775  22.5197881781990041 0 0 0
203       15   2   -0.1057620769230769   31.6982054420351496 -13.2626325467840012  20.8351931212875456 0 0 0
204       15   1    0.0285689230769231   29.1644191721021393 -14.1123250690080955  22.3525597727187062 0 0 0
205       15   1    0.0285689230769231   30.6873864593703587 -15.0137802280184385  22.2892740333731716 0 0 0
206       15   1    0.0285689230769231   29.7308302889056968 -14.7953718990404788  20.8177440813915489 0 0 0
207       15   3    0.3512849230769231   29.1456066556067839 -11.8635514244151459  21.2330914879034189 0 0 0
208       15   3    0.3512849230769231   29.6455756633425445 -12.5442965341959756  19.8409428664505114 0 0 0
209       16   5   -0.1832740769230769  -3.1948425020966664   30.2610910302679201  12.2698959319002370 0 0 0
210       16   4    0.6058039230769231  -4.5452145985781591   30.7853333058844605  12.7486003620035646 0 0 0
211       16   5   -0.1832740769230769  -5.3088994012158306   29.7074115954250750  13.5125728244265098 0 0 0
212       16   6   -1.0074770769230770  -4.3390126174867731   31.9584826137358498  13.5967297597854042 0 0 0
213       16   1    0.0285689230769231  -3.3291165988118889   29.3992628598031587  11.6071790605707914 0 0 0
214       16   1    0.0285689230769231  -2.5643489512891349   29.9444291966606784  13.1084143592031879 0 0 0
215       16   1    0.0285689230769231  -2.6515319095972245   31.0297002792631496  11.7091930707189462 0 0 0
216       16   2   -0.1057620769230769  -5.1344438111165571   31.0886986491580686  11.8764081135331558 0 0 0
217       16   1    0.0285689230769231  -4.7556724130274413   29.3718588807116348  14.3970122546807495 0 0 0
218       16   1    0.0285689230769231  -5.4839838902326274   28.8341023207600919  12.8750279837369686 0 0 0
219       16   1    0.0285689230769231  -6.2852907506685938   30.0775554730581867  13.8444782807910176 0 0 0
220       16   3    0.3512849230769231  -3.8051295158427907   31.6969913187694381  14.4248223644111242 0 0 0
221       16   3    0.3512849230769231  -5.2384460579884475   32.2966136021670707  13.9374646880945861 0 0 0
222       17   5   -0.1832740769230769  -4.2489162370115157   3.0434006564073082   29.9405806930748710 0 0 0
223       17   4    0.6058039230769231  -4.2627492160743863   4.5623321846963609   30.0825255942151024 0 0 0
224       17   5   -0.1832740769230769  -5.3495053158588091   5.0091173420517086   31.0562441458245075 0 0 0
225       17   6   -1.0074770769230770  -2.9518009027264096   5.0203466744587697   30.5405204389434743 0 0 0
226       17   1    0.0285689230769231  -5.2139426189167750   2.6824400637560664   29.5685558111385625 0 0 0
227       17   1    0.0285689230769231  -4.0532138984412613   2.5500351499346765   30.8993304305460939 0 0 0
228       17   1    0.0285689230769231  -3.4783229665927866   2.7222703815486722   29.2310768986843286 0 0 0
229       17   2   -0.1057620769230769  -4.4601749477186576   5.0059599943154147   29.1006099350481229 0 0 0
230       17   1    0.0285689230769231  -5.1927384736721072   4.5882260195242672   32.0558257995236460 0 0 0
231       17   1    0.0285689230769231  -6.3361870614704445   4.6860716254066572   30.7071199713048024 0 0 0
232       17   1    0.0285689230769231  -5.3706334157193272   6.1007222301549930   31.1482232796826608 0 0 0
233       17   3    0.3512849230769231  -2.7523101049057086   4.6321669030479509   31.4617511983367564 0 0 0
234       17   3    0.3512849230769231  -2.9654378588439356   6.0328437926492455   30.6591669293418327 0 0 0
235       18   5   -0.1832740769230769   21.7414951494616382 -20.5538411215705459  12.3402927770820128 0 0 0
236       18   4    0.6058039230769231   21.3618668423442557 -21.9185368668111273  12.9068442445211353 0 0 0
237       18   5   -0.1832740769230769   22.5872719983986414 -22.8204876111713020  13.0236803402427199 0 0 0
238       18   6   -1.0074770769230770   20.7334689718895220 -21.7445120212078002  14.2156427394853857 0 0 0
239       18   1    0.0285689230769231   22.1867269608070323 -20.6601832184541330  11.3450887916616789 0 0 0
240       18   1    0.0285689230769231   22.4677810133648883 -20.0391491910755946  12.9794414671203242 0 0 0
241       18   1    0.0285689230769231   20.8603063416907872 -19.9101497189958145  12.2428148851743792 0 0 0
242       18   2   -0.1057620769230769   20.6360683019704148 -22.3892517638704298  12.2348435903714154 0 0 0
243       18   1    0.0285689230769231   23.3435107288890613 -22.3886218033958997  13.6888748510293965 0 0 0
244       18   1    0.0285689230769231   23.0500723049417964 -22.9707611200101205  12.0423440878782024 0 0 0
245       18   1    0.0285689230769231   22.3141535011804422 -23.8061348062465079  13.4166354047445679 0 0 0
246       18   3    0.3512849230769231   21.3965615375484788 -21.3215028192585692  14.8641160927036289 0 0 0
247       18   3    0.3512849230769231   20.5003814372735391 -22.6565330276927170  14.6071797818414026 0 0 0
248       19   5   -0.1832740769230769  -4.1565784839023987  -11.6694593452813784  13.2792517479473116 0 0 0
249       19   4    0.6058039230769231  -4.2575940076089251  -13.0367302945935730  12.6100292819188589 0 0 0
250       19   5   -0.1832740769230769  -3.7505985289899653  -14.1368869755841882  13.5381426785098462 0 0 0
251       19   6   -1.0074770769230770  -5.6468383579545751  -13.2921937358614777  12.2320602407154198 0 0 0
252       19   1    0.0285689230769231  -3.1172208891499418  -11.4454504037269285  13.5429310310433859 0 0 0
253       19   1    0.0285689230769231  -4.7528153481923807  -11.6243692490564445  14.1976081451505305 0 0 0
254       19   1    0.0285689230769231  -4.5072302333197296  -10.8771477219385098  12.6087147107552227 0 0 0
255       19   2   -0.1057620769230769  -3.6476547402979054  -13.0293450046417334  11.7001609055124547 0 0 0
256       19   1    0.0285689230769231  -4.3331893922849307  -14.1822066288718460  14.4651932950519537 0 0 0
257       19   1    0.0285689230769231  -2.7036618987635741  -13.9611981837502146  13.8080393848886605 0 0 0
258       19   1    0.0285689230769231  -3.8086671662958147  -15.1179294761938099  13.0536930580547743 0 0 0
259       19   3    0.3512849230769231  -6.2326586940106594  -13.3194054899052947  13.0658589452628728 0 0 0
260       19   3    0.3512849230769231  -5.7212252771813308  -14.2154765444509454  11.8061156290449460 0 0 0
261       20   5   -0.1832740769230769   14.3697033972780090 -30.5634317041895365 -22.3752760198252751 0 0 0
262       20   4    0.6058039230769231   13.0498033910140094 -30.9635261328405633 -21.7231402091794514 0 0 0
263       20   5   -0.1832740769230769   12.6169272545005136 -29.9285240054263681 -20.6886488067573495 0 0 0
264       20   6   -1.0074770769230770   12.0228400193917153 -31.1110714620237978 -22.7535278256046389 0 0 0
265       20   1    0.0285689230769231   15.1608577942701466 -30.4774693995188279 -21.6225103309846354 0 0 0
266       20   1    0.0285689230769231   14.2899352029697759 -29.5991085319759186 -22.8896959281770727 0 0 0
267       20   1    0.0285689230769231   14.6886563867247357 -31.3127366716588185 -23.1081780135112282 0 0 0
268       20   2   -0.1057620769230769   13.1817060121082559 -31.9305293318882732 -21.2256993320091425 0 0 0
269       20   1    0.0285689230769231   12.4721124865928186 -28.9415537834493577 -21.1423086953594606 0 0 0
270       20   1    0.0285689230769231   13.3738086250541350 -29.8289607980820399 -19.9031522440327358 0 0 0
271       20   1    0.0285689230769231   11.6765799024266563 -30.2215987223773794 -20.2086885405563130 0 0 0