
                                 *****************
                                 * O   R   C   A *
                                 *****************

           --- An Ab Initio, DFT and Semiempirical electronic structure package ---

                  #######################################################
                  #                        -***-                        #
                  #          Department of theory and spectroscopy      #
                  #               Directorship: Frank Neese             #
                  #        Max Planck Institute fuer Kohlenforschung    #
                  #                Kaiser Wilhelm Platz 1               #
                  #                 D-45470 Muelheim/Ruhr               #
                  #                      Germany                        #
                  #                                                     #
                  #                  All rights reserved                #
                  #                        -***-                        #
                  #######################################################


                         Program Version 4.1.2  - RELEASE  -


 With contributions from (in alphabetic order):
   Daniel Aravena         : Magnetic Properties
   Michael Atanasov       : Ab Initio Ligand Field Theory
   Alexander A. Auer      : GIAO ZORA
   Ute Becker             : Parallelization
   Giovanni Bistoni       : ED, Open-shell LED
   Martin Brehm           : Molecular dynamics
   Dmytro Bykov           : SCF Hessian
   Vijay G. Chilkuri      : MRCI spin determinant printing
   Dipayan Datta          : RHF DLPNO-CCSD density
   Achintya Kumar Dutta   : EOM-CC, STEOM-CC
   Dmitry Ganyushin       : Spin-Orbit,Spin-Spin,Magnetic field MRCI
   Miquel Garcia          : C-PCM Hessian
   Yang Guo               : DLPNO-NEVPT2, CIM, IAO-localization
   Andreas Hansen         : Spin unrestricted coupled pair/coupled cluster methods
   Benjamin Helmich-Paris : CASSCF linear response (MC-RPA)
   Lee Huntington         : MR-EOM, pCC
   Robert Izsak           : Overlap fitted RIJCOSX, COSX-SCS-MP3, EOM
   Christian Kollmar      : KDIIS, OOCD, Brueckner-CCSD(T), CCSD density
   Simone Kossmann        : Meta GGA functionals, TD-DFT gradient, OOMP2, MP2 Hessian
   Martin Krupicka        : AUTO-CI
   Lucas Lang             : DCDCAS
   Dagmar Lenk            : GEPOL surface, SMD
   Dimitrios Liakos       : Extrapolation schemes; parallel MDCI
   Dimitrios Manganas     : ROCIS; embedding schemes
   Dimitrios Pantazis     : SARC Basis sets
   Taras Petrenko         : DFT Hessian,TD-DFT gradient, ASA, ECA, R-Raman, ABS, FL, XAS/XES, NRVS
   Peter Pinski           : DLPNO-MP2, DLPNO-MP2 Gradient
   Christoph Reimann      : Effective Core Potentials
   Marius Retegan         : Local ZFS, SOC
   Christoph Riplinger    : Optimizer, TS searches, QM/MM, DLPNO-CCSD(T), (RO)-DLPNO pert. Triples
   Tobias Risthaus        : Range-separated hybrids, TD-DFT gradient, RPA, STAB
   Michael Roemelt        : Restricted open shell CIS
   Masaaki Saitow         : Open-shell DLPNO
   Barbara Sandhoefer     : DKH picture change effects
   Avijit Sen             : IP-ROCIS
   Kantharuban Sivalingam : CASSCF convergence, NEVPT2, FIC-MRCI
   Bernardo de Souza      : ESD, SOC TD-DFT
   Georgi Stoychev        : AutoAux, RI-MP2 NMR
   Willem Van den Heuvel  : Paramagnetic NMR
   Boris Wezisla          : Elementary symmetry handling
   Frank Wennmohs         : Technical directorship


 We gratefully acknowledge several colleagues who have allowed us to
 interface, adapt or use parts of their codes:
   Stefan Grimme, W. Hujo, H. Kruse,             : VdW corrections, initial TS optimization,
                  C. Bannwarth                     DFT functionals, gCP, sTDA/sTD-DF
   Ed Valeev                                     : LibInt (2-el integral package), F12 methods
   Garnet Chan, S. Sharma, J. Yang, R. Olivares  : DMRG
   Ulf Ekstrom                                   : XCFun DFT Library
   Mihaly Kallay                                 : mrcc  (arbitrary order and MRCC methods)
   Andreas Klamt, Michael Diedenhofen            : otool_cosmo (COSMO solvation model)
   Jiri Pittner, Ondrej Demel                    : Mk-CCSD
   Frank Weinhold                                : gennbo (NPA and NBO analysis)
   Christopher J. Cramer and Donald G. Truhlar   : smd solvation model
   Lars Goerigk                                  : TD-DFT with DH, B97 family of functionals
   V. Asgeirsson, H. Jonsson                     : NEB implementation
   FAccTs GmbH                                   : IRC, NEB, NEB-TS, Multilevel


 Your calculation uses the libint2 library for the computation of 2-el integrals
 For citations please refer to: http://libint.valeyev.net

 This ORCA versions uses:
   CBLAS   interface :  Fast vector & matrix operations
   LAPACKE interface :  Fast linear algebra routines
   SCALAPACK package :  Parallel linear algebra routines


Your calculation utilizes the atom-pairwise dispersion correction
with the zero-damping scheme (D30)
Cite in your paper:
S.Grimme, J.Antony, S.Ehrlich and H.Krieg, J.Chem.Phys., 132, (2010), 154104 
   

XCFun DFT library Copyright 2009-2010 Ulf Ekstrom and contributors.
See http://admol.org/xcfun for more information. This is free soft-
ware; see the source code for copying conditions. There is ABSOLUTELY
NO WARRANTY; not even for MERCHANTABILITY or FITNESS FOR A PARTICULAR
PURPOSE. For details see the documentation. Scientific users of this 
library should cite U. Ekstrom, L. Visscher, R. Bast, A. J. Thorvald-
sen and K. Ruud; J.Chem.Theor.Comp. 2010, DOI: 10.1021/ct100117s
XCFun Version 0.99 
----- Orbital basis set information -----
Your calculation utilizes the basis: def2-TZVP
   F. Weigend and R. Ahlrichs, Phys. Chem. Chem. Phys. 7, 3297 (2005).

================================================================================
                                        WARNINGS
                       Please study these warnings very carefully!
================================================================================


WARNING: Geometry Optimization
  ===> : Switching off AutoStart
         For restart on a previous wavefunction, please use MOREAD

INFO   : the flag for use of LIBINT has been found!

================================================================================
                                       INPUT FILE
================================================================================
NAME = bonds_angles_[1[8[6]]]-[8[6[1][1][1]][1]]_10.in
|  1> #Run DFT geometry optimization
|  2> ! wB97X-D3 def2-TZVP TIGHTSCF Grid5 FinalGrid6 Opt CHELPG PAL4
|  3> 
|  4> %base "10_geo_opt"
|  5> %geom MaxIter 500
|  6> end
|  7> 
|  8> %geom
|  9>   Constraints
| 10>     { B 2 1 C }
| 11>   end
| 12> end
| 13> 
| 14> 
| 15> * xyz 0 1
| 16>   C                    3.011505             -1.180506            0.598251            
| 17>   O                    4.394870             -1.127659            0.874066            
| 18>   H                    4.771999             -0.379413            0.412734            
| 19>   H                    2.806631             -1.318574            -0.469591           
| 20>   H                    2.611829             -2.039874            1.135657            
| 21>   H                    2.484954             -0.284100            0.945418            
| 22> *
| 23> 
| 24>                          ****END OF INPUT****
================================================================================

                       *****************************
                       * Geometry Optimization Run *
                       *****************************

Geometry optimization settings:
Update method            Update   .... BFGS
Choice of coordinates    CoordSys .... Z-matrix Internals
Initial Hessian          InHess   .... Almoef's Model

Convergence Tolerances:
Energy Change            TolE     ....  5.0000e-06 Eh
Max. Gradient            TolMAXG  ....  3.0000e-04 Eh/bohr
RMS Gradient             TolRMSG  ....  1.0000e-04 Eh/bohr
Max. Displacement        TolMAXD  ....  4.0000e-03 bohr
RMS Displacement         TolRMSD  ....  2.0000e-03 bohr

------------------------------------------------------------------------------
                        ORCA OPTIMIZATION COORDINATE SETUP
------------------------------------------------------------------------------

The optimization will be done in new redundant internal coordinates
Making redundant internal coordinates   ...  (new redundants) done
Evaluating the initial hessian          ...  (Almloef) done
Evaluating the coordinates              ...  done
Calculating the B-matrix                .... done
Calculating the G-matrix                .... done
Diagonalizing the G-matrix              .... done
Imposing constraints:
 Iter   0:  RMS(Cart)=    0.0000000000 RMS(Int)=    0.0000000000
CONVERGED
The first mode is                       ....    3
The number of degrees of freedom        ....   12
Storing new coordinates                 .... done

    -----------------------------------------------------------------
                    Redundant Internal Coordinates


    -----------------------------------------------------------------
         Definition                    Initial Value    Approx d2E/dq
    -----------------------------------------------------------------
      1. B(O   1,C   0)                  1.4116         0.516942   
      2. B(H   2,O   1)                  0.9565         0.526651 C 
      3. B(H   3,C   0)                  1.0960         0.352187   
      4. B(H   4,C   0)                  1.0895         0.360732   
      5. B(H   5,C   0)                  1.0960         0.352185   
      6. A(O   1,C   0,H   4)          107.0169         0.340286   
      7. A(O   1,C   0,H   3)          112.2263         0.338926   
      8. A(O   1,C   0,H   5)          112.2282         0.338926   
      9. A(H   3,C   0,H   5)          108.7729         0.288819   
     10. A(H   4,C   0,H   5)          108.2173         0.289906   
     11. A(H   3,C   0,H   4)          108.2176         0.289907   
     12. A(C   0,O   1,H   2)          108.7499         0.359566   
     13. D(H   2,O   1,C   0,H   5)    -61.4304         0.021176   
     14. D(H   2,O   1,C   0,H   3)     61.4271         0.021176   
     15. D(H   2,O   1,C   0,H   4)    179.9981         0.021176   
    -----------------------------------------------------------------

Number of atoms                         .... 6
Number of degrees of freedom            .... 15

         *************************************************************
         *                GEOMETRY OPTIMIZATION CYCLE   1            *
         *************************************************************
---------------------------------
CARTESIAN COORDINATES (ANGSTROEM)
---------------------------------
  C      3.011505   -1.180506    0.598251
  O      4.394870   -1.127659    0.874066
  H      4.771999   -0.379413    0.412734
  H      2.806631   -1.318574   -0.469591
  H      2.611829   -2.039874    1.135657
  H      2.484954   -0.284100    0.945418

----------------------------
CARTESIAN COORDINATES (A.U.)
----------------------------
  NO LB      ZA    FRAG     MASS         X           Y           Z
   0 C     6.0000    0    12.011    5.690920   -2.230833    1.130531
   1 O     8.0000    0    15.999    8.305101   -2.130967    1.651745
   2 H     1.0000    0     1.008    9.017771   -0.716987    0.779954
   3 H     1.0000    0     1.008    5.303764   -2.491744   -0.887398
   4 H     1.0000    0     1.008    4.935642   -3.854803    2.146081
   5 H     1.0000    0     1.008    4.695883   -0.536871    1.786581

--------------------------------
INTERNAL COORDINATES (ANGSTROEM)
--------------------------------
 C      0   0   0     0.000000000000     0.00000000     0.00000000
 O      1   0   0     1.411582602209     0.00000000     0.00000000
 H      2   1   0     0.956517419277   108.74994119     0.00000000
 H      1   2   3     1.096048660172   112.22629996    61.42713417
 H      1   2   3     1.089522589594   107.01693843   179.99806602
 H      1   2   3     1.096049541912   112.22816732   298.56961047

---------------------------
INTERNAL COORDINATES (A.U.)
---------------------------
 C      0   0   0     0.000000000000     0.00000000     0.00000000
 O      1   0   0     2.667504533583     0.00000000     0.00000000
 H      2   1   0     1.807555964759   108.74994119     0.00000000
 H      1   2   3     2.071231797176   112.22629996    61.42713417
 H      1   2   3     2.058899311054   107.01693843   179.99806602
 H      1   2   3     2.071233463424   112.22816732   298.56961047

---------------------
BASIS SET INFORMATION
---------------------
There are 3 groups of distinct atoms

 Group   1 Type C   : 11s6p2d1f contracted to 5s3p2d1f pattern {62111/411/11/1}
 Group   2 Type O   : 11s6p2d1f contracted to 5s3p2d1f pattern {62111/411/11/1}
 Group   3 Type H   : 5s1p contracted to 3s1p pattern {311/1}

Atom   0C    basis set group =>   1
Atom   1O    basis set group =>   2
Atom   2H    basis set group =>   3
Atom   3H    basis set group =>   3
Atom   4H    basis set group =>   3
Atom   5H    basis set group =>   3


           ************************************************************
           *        Program running with 4 parallel MPI-processes     *
           *              working on a common directory               *
           ************************************************************
------------------------------------------------------------------------------
                           ORCA GTO INTEGRAL CALCULATION
------------------------------------------------------------------------------

                         BASIS SET STATISTICS AND STARTUP INFO

 # of primitive gaussian shells          ...   64
 # of primitive gaussian functions       ...  124
 # of contracted shells                  ...   38
 # of contracted basis functions         ...   86
 Highest angular momentum                ...    3
 Maximum contraction depth               ...    6
 Integral package used                   ... LIBINT
 Integral threshhold            Thresh   ...  2.500e-11
 Primitive cut-off              TCut     ...  2.500e-12


------------------------------ INTEGRAL EVALUATION ----------------------------


 * One electron integrals 
 Pre-screening matrix                    ... done
 Shell pair data                         ... done (   0.000 sec)



           ************************************************************
           *        Program running with 4 parallel MPI-processes     *
           *              working on a common directory               *
           ************************************************************
-------------------------------------------------------------------------------
                                 ORCA SCF
-------------------------------------------------------------------------------

------------
SCF SETTINGS
------------
Hamiltonian:
 Density Functional     Method          .... DFT(GTOs)
 Exchange Functional    Exchange        .... WB97X-D3
 Correlation Functional Correlation     .... WB97X-D3
 Gradients option       PostSCFGGA      .... off
 Hybrid DFT is turned on
   Fraction HF Exchange ScalHFX         ....  0.195728
   Scaling of DF-GGA-X  ScalDFX         ....  0.000000
   Scaling of DF-GGA-C  ScalDFC         ....  1.000000
   Scaling of DF-LDA-C  ScalLDAC        ....  1.000000
   Perturbative correction              ....  0.000000
   Density functional embedding theory  .... OFF
 Long-range corrected/Screened/Range-Separated Hybrid DFT is turned on
   Amount of maximum screened exact exchange              ....  0.804272
   Range separation parameter mu (erf(mu*r12)/r12)        ....  0.250000


General Settings:
 Integral files         IntName         .... 10_geo_opt
 Hartree-Fock type      HFTyp           .... RHF
 Total Charge           Charge          ....    0
 Multiplicity           Mult            ....    1
 Number of Electrons    NEL             ....   18
 Basis Dimension        Dim             ....   86
 Nuclear Repulsion      ENuc            ....     40.4435573049 Eh

Convergence Acceleration:
 DIIS                   CNVDIIS         .... on
   Start iteration      DIISMaxIt       ....    12
   Startup error        DIISStart       ....  0.200000
   # of expansion vecs  DIISMaxEq       ....     5
   Bias factor          DIISBfac        ....   1.050
   Max. coefficient     DIISMaxC        ....  10.000
 Newton-Raphson         CNVNR           .... off
 SOSCF                  CNVSOSCF        .... on
   Start iteration      SOSCFMaxIt      ....   150
   Startup grad/error   SOSCFStart      ....  0.003300
 Level Shifting         CNVShift        .... on
   Level shift para.    LevelShift      ....    0.2500
   Turn off err/grad.   ShiftErr        ....    0.0010
 Zerner damping         CNVZerner       .... off
 Static damping         CNVDamp         .... on
   Fraction old density DampFac         ....    0.7000
   Max. Damping (<1)    DampMax         ....    0.9800
   Min. Damping (>=0)   DampMin         ....    0.0000
   Turn off err/grad.   DampErr         ....    0.1000
 Fernandez-Rico         CNVRico         .... off

SCF Procedure:
 Maximum # iterations   MaxIter         ....   125
 SCF integral mode      SCFMode         .... Direct
   Integral package                     .... LIBINT
 Reset frequency        DirectResetFreq ....    20
 Integral Threshold     Thresh          ....  2.500e-11 Eh
 Primitive CutOff       TCut            ....  2.500e-12 Eh

Convergence Tolerance:
 Convergence Check Mode ConvCheckMode   .... Total+1el-Energy
 Convergence forced     ConvForced      .... 0
 Energy Change          TolE            ....  1.000e-08 Eh
 1-El. energy change                    ....  1.000e-05 Eh
 Orbital Gradient       TolG            ....  1.000e-05
 Orbital Rotation angle TolX            ....  1.000e-05
 DIIS Error             TolErr          ....  5.000e-07


Diagonalization of the overlap matrix:
Smallest eigenvalue                        ... 1.650e-03
Time for diagonalization                   ...    0.026 sec
Threshold for overlap eigenvalues          ... 1.000e-08
Number of eigenvalues below threshold      ... 0
Time for construction of square roots      ...    0.005 sec
Total time needed                          ...    0.031 sec

-------------------
DFT GRID GENERATION
-------------------

General Integration Accuracy     IntAcc      ...  5.010
Radial Grid Type                 RadialGrid  ... Gauss-Chebyshev
Angular Grid (max. acc.)         AngularGrid ... Lebedev-434
Angular grid pruning method      GridPruning ... 3 (G Style)
Weight generation scheme         WeightScheme... Becke
Basis function cutoff            BFCut       ...    1.0000e-11
Integration weight cutoff        WCut        ...    1.0000e-14
Grids for H and He will be reduced by one unit

# of grid points (after initial pruning)     ...  48308 (   0.0 sec)
# of grid points (after weights+screening)   ...  46676 (   0.0 sec)
nearest neighbour list constructed           ...    0.0 sec
Grid point re-assignment to atoms done       ...    0.0 sec
Grid point division into batches done        ...    0.3 sec
Reduced shell lists constructed in    0.4 sec

Total number of grid points                  ...    46676
Total number of batches                      ...      733
Average number of points per batch           ...       63
Average number of grid points per atom       ...     7779
Average number of shells per batch           ...    33.12 (87.16%)
Average number of basis functions per batch  ...    76.78 (89.28%)
Average number of large shells per batch     ...    30.63 (92.48%)
Average number of large basis fcns per batch ...    72.29 (94.15%)
Maximum spatial batch extension              ...  15.77, 14.99, 16.58 au
Average spatial batch extension              ...   0.40,  0.40,  0.43 au

Time for grid setup =    0.457 sec

------------------------------
INITIAL GUESS: MODEL POTENTIAL
------------------------------
Loading Hartree-Fock densities                     ... done
Calculating cut-offs                               ... done
Setting up the integral package                    ... done
Initializing the effective Hamiltonian             ... done
Starting the Coulomb interaction                   ... done (   0.0 sec)
Reading the grid                                   ... done
Mapping shells                                     ... done
Starting the XC term evaluation                    ... done (   0.1 sec)
  promolecular density results
     # of electrons  =     17.998045220
     EX              =    -14.430519948
     EC              =     -0.575140228
     EX+EC           =    -15.005660176
Transforming the Hamiltonian                       ... done (   0.0 sec)
Diagonalizing the Hamiltonian                      ... done (   0.0 sec)
Back transforming the eigenvectors                 ... done (   0.0 sec)
Now organizing SCF variables                       ... done
                      ------------------
                      INITIAL GUESS DONE (   0.6 sec)
                      ------------------
--------------
SCF ITERATIONS
--------------
ITER       Energy         Delta-E        Max-DP      RMS-DP      [F,P]     Damp
               ***  Starting incremental Fock matrix formation  ***
  0   -115.6511816412   0.000000000000 0.03698889  0.00147489  0.2524461 0.7000
  1   -115.6882591185  -0.037077477279 0.02203429  0.00104094  0.1263132 0.7000
                               ***Turning on DIIS***
  2   -115.7053292853  -0.017070166826 0.03157198  0.00188152  0.0491356 0.0000
  3   -115.7330760100  -0.027746724680 0.01774760  0.00068028  0.0611520 0.0000
  4   -115.7376006150  -0.004524604966 0.00406560  0.00013178  0.0065488 0.0000
                      *** Initiating the SOSCF procedure ***
                           *** Shutting down DIIS ***
                      *** Re-Reading the Fockian *** 
                      *** Removing any level shift *** 
ITER      Energy       Delta-E        Grad      Rot      Max-DP    RMS-DP
  5   -115.73769473  -0.0000941139  0.000489  0.000489  0.000677  0.000043
               *** Restarting incremental Fock matrix formation ***
  6   -115.73770286  -0.0000081327  0.000152  0.000203  0.000491  0.000026
  7   -115.73770358  -0.0000007221  0.000056  0.000109  0.000208  0.000011
  8   -115.73770364  -0.0000000575  0.000019  0.000017  0.000029  0.000001
  9   -115.73770365  -0.0000000055  0.000010  0.000008  0.000015  0.000001
 10   -115.73770365  -0.0000000015  0.000003  0.000003  0.000003  0.000000
                  ***Gradient check signals convergence***
              ***Rediagonalizing the Fockian in SOSCF/NRSCF***

               *****************************************************
               *                     SUCCESS                       *
               *           SCF CONVERGED AFTER  11 CYCLES          *
               *****************************************************

Setting up the final grid:

General Integration Accuracy     IntAcc      ...  5.340
Radial Grid Type                 RadialGrid  ... Gauss-Chebyshev
Angular Grid (max. acc.)         AngularGrid ... Lebedev-590
Angular grid pruning method      GridPruning ... 3 (G Style)
Weight generation scheme         WeightScheme... Becke
Basis function cutoff            BFCut       ...    1.0000e-11
Integration weight cutoff        WCut        ...    1.0000e-14
Grids for H and He will be reduced by one unit

# of grid points (after initial pruning)     ...  77324 (   0.0 sec)
# of grid points (after weights+screening)   ...  74512 (   0.0 sec)
nearest neighbour list constructed           ...    0.0 sec
Grid point re-assignment to atoms done       ...    0.0 sec
Grid point division into batches done        ...    0.8 sec
Reduced shell lists constructed in    0.8 sec

Total number of grid points                  ...    74512
Total number of batches                      ...     1167
Average number of points per batch           ...       63
Average number of grid points per atom       ...    12419
Average number of shells per batch           ...    32.93 (86.65%)
Average number of basis functions per batch  ...    76.35 (88.78%)
Average number of large shells per batch     ...    30.32 (92.08%)
Average number of large basis fcns per batch ...    71.53 (93.68%)
Maximum spatial batch extension              ...  13.18, 14.25, 15.48 au
Average spatial batch extension              ...   0.34,  0.36,  0.37 au

Final grid set up in    0.9 sec
Final integration                            ... done (   0.2 sec)
Change in XC energy                          ...    -0.000107586
Integrated number of electrons               ...    18.000000745
Previous integrated no of electrons          ...    18.000002269

----------------
TOTAL SCF ENERGY
----------------

Total Energy       :         -115.73781123 Eh           -3149.38596 eV

Components:
Nuclear Repulsion  :           40.44355730 Eh            1100.52514 eV
Electronic Energy  :         -156.18136854 Eh           -4249.91110 eV
One Electron Energy:         -237.30516698 Eh           -6457.40188 eV
Two Electron Energy:           81.12379845 Eh            2207.49078 eV

Virial components:
Potential Energy   :         -230.99026113 Eh           -6285.56456 eV
Kinetic Energy     :          115.25244990 Eh            3136.17860 eV
Virial Ratio       :            2.00421129


DFT components:
N(Alpha)           :        9.000000372516 electrons
N(Beta)            :        9.000000372516 electrons
N(Total)           :       18.000000745032 electrons
E(XC)              :      -10.655996480842 Eh       
DFET-embed. en.    :        0.000000000000 Eh       

---------------
SCF CONVERGENCE
---------------

  Last Energy change         ...   -4.6796e-11  Tolerance :   1.0000e-08
  Last MAX-Density change    ...    1.8646e-06  Tolerance :   1.0000e-07
  Last RMS-Density change    ...    7.8129e-08  Tolerance :   5.0000e-09
  Last Orbital Gradient      ...    1.3505e-06  Tolerance :   1.0000e-05
  Last Orbital Rotation      ...    7.8060e-07  Tolerance :   1.0000e-05

             **** THE GBW FILE WAS UPDATED (10_geo_opt.gbw) ****
             **** DENSITY FILE WAS UPDATED (10_geo_opt.scfp.tmp) ****
             **** ENERGY FILE WAS UPDATED (10_geo_opt.en.tmp) ****
----------------
ORBITAL ENERGIES
----------------

  NO   OCC          E(Eh)            E(eV) 
   0   2.0000     -19.227998      -523.2204 
   1   2.0000     -10.315129      -280.6889 
   2   2.0000      -1.136996       -30.9392 
   3   2.0000      -0.795441       -21.6451 
   4   2.0000      -0.611708       -16.6454 
   5   2.0000      -0.541792       -14.7429 
   6   2.0000      -0.526354       -14.3228 
   7   2.0000      -0.433839       -11.8054 
   8   2.0000      -0.373643       -10.1674 
   9   0.0000       0.116748         3.1769 
  10   0.0000       0.156720         4.2646 
  11   0.0000       0.202576         5.5124 
  12   0.0000       0.205109         5.5813 
  13   0.0000       0.226404         6.1608 
  14   0.0000       0.304324         8.2811 
  15   0.0000       0.313357         8.5269 
  16   0.0000       0.404509        11.0072 
  17   0.0000       0.452648        12.3172 
  18   0.0000       0.485309        13.2059 
  19   0.0000       0.535840        14.5810 
  20   0.0000       0.543666        14.7939 
  21   0.0000       0.567719        15.4484 
  22   0.0000       0.598571        16.2880 
  23   0.0000       0.603500        16.4221 
  24   0.0000       0.671489        18.2722 
  25   0.0000       0.778998        21.1976 
  26   0.0000       0.832208        22.6455 
  27   0.0000       0.861266        23.4362 
  28   0.0000       0.989580        26.9279 
  29   0.0000       1.013954        27.5911 
  30   0.0000       1.109755        30.1980 
  31   0.0000       1.382791        37.6277 
  32   0.0000       1.512951        41.1695 
  33   0.0000       1.553636        42.2766 
  34   0.0000       1.602875        43.6164 
  35   0.0000       1.613108        43.8949 
  36   0.0000       1.624148        44.1953 
  37   0.0000       1.660014        45.1713 
  38   0.0000       1.687962        45.9318 
  39   0.0000       1.774489        48.2863 
  40   0.0000       1.952174        53.1214 
  41   0.0000       2.030892        55.2634 
  42   0.0000       2.055247        55.9261 
  43   0.0000       2.094167        56.9852 
  44   0.0000       2.114742        57.5451 
  45   0.0000       2.268890        61.7396 
  46   0.0000       2.333390        63.4948 
  47   0.0000       2.345584        63.8266 
  48   0.0000       2.381151        64.7944 
  49   0.0000       2.429550        66.1114 
  50   0.0000       2.497624        67.9638 
  51   0.0000       2.596554        70.6558 
  52   0.0000       2.639922        71.8359 
  53   0.0000       2.708093        73.6910 
  54   0.0000       2.842404        77.3457 
  55   0.0000       2.871364        78.1338 
  56   0.0000       2.888674        78.6048 
  57   0.0000       2.992980        81.4431 
  58   0.0000       3.096067        84.2483 
  59   0.0000       3.173200        86.3471 
  60   0.0000       3.299313        89.7789 
  61   0.0000       3.408369        92.7464 
  62   0.0000       3.442108        93.6645 
  63   0.0000       3.488288        94.9212 
  64   0.0000       3.612596        98.3037 
  65   0.0000       3.645254        99.1924 
  66   0.0000       3.667084        99.7864 
  67   0.0000       4.006678       109.0273 
  68   0.0000       4.223776       114.9348 
  69   0.0000       4.273442       116.2863 
  70   0.0000       4.455850       121.2498 
  71   0.0000       4.564485       124.2060 
  72   0.0000       5.346103       145.4749 
  73   0.0000       5.425559       147.6370 
  74   0.0000       5.555097       151.1619 
  75   0.0000       5.826087       158.5359 
  76   0.0000       5.834358       158.7610 
  77   0.0000       5.986052       162.8888 
  78   0.0000       6.382533       173.6776 
  79   0.0000       6.531064       177.7193 
  80   0.0000       6.745452       183.5531 
  81   0.0000       6.804015       185.1466 
  82   0.0000       7.039483       191.5541 
  83   0.0000       7.216929       196.3826 
  84   0.0000      22.406096       609.7009 
  85   0.0000      43.664002      1188.1579 

                    ********************************
                    * MULLIKEN POPULATION ANALYSIS *
                    ********************************

-----------------------
MULLIKEN ATOMIC CHARGES
-----------------------
   0 C :   -0.150862
   1 O :   -0.477508
   2 H :    0.312873
   3 H :    0.098631
   4 H :    0.118231
   5 H :    0.098635
Sum of atomic charges:    0.0000000

--------------------------------
MULLIKEN REDUCED ORBITAL CHARGES
--------------------------------
  0 C s       :     3.223100  s :     3.223100
      pz      :     1.047261  p :     2.826109
      px      :     0.702199
      py      :     1.076649
      dz2     :     0.011106  d :     0.094232
      dxz     :     0.032491
      dyz     :     0.002644
      dx2y2   :     0.012739
      dxy     :     0.035253
      f0      :     0.001356  f :     0.007421
      f+1     :     0.000956
      f-1     :     0.000175
      f+2     :     0.001464
      f-2     :     0.000123
      f+3     :     0.001360
      f-3     :     0.001986
  1 O s       :     3.792533  s :     3.792533
      pz      :     1.759439  p :     4.652713
      px      :     1.313609
      py      :     1.579664
      dz2     :     0.003137  d :     0.030575
      dxz     :     0.006477
      dyz     :     0.005835
      dx2y2   :     0.008934
      dxy     :     0.006192
      f0      :     0.000270  f :     0.001687
      f+1     :     0.000233
      f-1     :     0.000087
      f+2     :     0.000288
      f-2     :     0.000236
      f+3     :     0.000368
      f-3     :     0.000206
  2 H s       :     0.639309  s :     0.639309
      pz      :     0.017054  p :     0.047817
      px      :     0.012754
      py      :     0.018009
  3 H s       :     0.882004  s :     0.882004
      pz      :     0.012072  p :     0.019365
      px      :     0.003007
      py      :     0.004286
  4 H s       :     0.861549  s :     0.861549
      pz      :     0.006297  p :     0.020219
      px      :     0.004193
      py      :     0.009729
  5 H s       :     0.882001  s :     0.882001
      pz      :     0.004929  p :     0.019364
      px      :     0.004977
      py      :     0.009458


                     *******************************
                     * LOEWDIN POPULATION ANALYSIS *
                     *******************************

----------------------
LOEWDIN ATOMIC CHARGES
----------------------
   0 C :   -0.385044
   1 O :   -0.075617
   2 H :    0.165154
   3 H :    0.093405
   4 H :    0.108698
   5 H :    0.093404

-------------------------------
LOEWDIN REDUCED ORBITAL CHARGES
-------------------------------
  0 C s       :     2.862920  s :     2.862920
      pz      :     1.096640  p :     3.052207
      px      :     0.846017
      py      :     1.109551
      dz2     :     0.072403  d :     0.412897
      dxz     :     0.114031
      dyz     :     0.020706
      dx2y2   :     0.082123
      dxy     :     0.123635
      f0      :     0.007821  f :     0.057020
      f+1     :     0.007162
      f-1     :     0.000855
      f+2     :     0.012527
      f-2     :     0.004831
      f+3     :     0.011732
      f-3     :     0.012093
  1 O s       :     3.365736  s :     3.365736
      pz      :     1.699028  p :     4.633650
      px      :     1.381083
      py      :     1.553538
      dz2     :     0.006131  d :     0.071582
      dxz     :     0.017864
      dyz     :     0.008093
      dx2y2   :     0.019344
      dxy     :     0.020150
      f0      :     0.000484  f :     0.004649
      f+1     :     0.000622
      f-1     :     0.000072
      f+2     :     0.001052
      f-2     :     0.000562
      f+3     :     0.000891
      f-3     :     0.000966
  2 H s       :     0.675301  s :     0.675301
      pz      :     0.055933  p :     0.159544
      px      :     0.034028
      py      :     0.069583
  3 H s       :     0.846769  s :     0.846769
      pz      :     0.036183  p :     0.059825
      px      :     0.009713
      py      :     0.013929
  4 H s       :     0.831708  s :     0.831708
      pz      :     0.019212  p :     0.059594
      px      :     0.011607
      py      :     0.028775
  5 H s       :     0.846771  s :     0.846771
      pz      :     0.015605  p :     0.059825
      px      :     0.015203
      py      :     0.029017


                      *****************************
                      * MAYER POPULATION ANALYSIS *
                      *****************************

  NA   - Mulliken gross atomic population
  ZA   - Total nuclear charge
  QA   - Mulliken gross atomic charge
  VA   - Mayer's total valence
  BVA  - Mayer's bonded valence
  FA   - Mayer's free valence

  ATOM       NA         ZA         QA         VA         BVA        FA
  0 C      6.1509     6.0000    -0.1509     3.9349     3.9349     0.0000
  1 O      8.4775     8.0000    -0.4775     1.8882     1.8882     0.0000
  2 H      0.6871     1.0000     0.3129     0.9138     0.9138     0.0000
  3 H      0.9014     1.0000     0.0986     0.9596     0.9596    -0.0000
  4 H      0.8818     1.0000     0.1182     0.9598     0.9598    -0.0000
  5 H      0.9014     1.0000     0.0986     0.9596     0.9596     0.0000

  Mayer bond orders larger than 0.1
B(  0-C ,  1-O ) :   0.9986 B(  0-C ,  3-H ) :   0.9755 B(  0-C ,  4-H ) :   0.9750 
B(  0-C ,  5-H ) :   0.9755 B(  1-O ,  2-H ) :   0.9004 

-------
TIMINGS
-------

Total SCF time: 0 days 0 hours 0 min 8 sec 

Total time                  ....       8.929 sec
Sum of individual times     ....       8.560 sec  ( 95.9%)

Fock matrix formation       ....       6.976 sec  ( 78.1%)
  XC integration            ....       1.941 sec  ( 27.8% of F)
    Basis function eval.    ....       0.409 sec  ( 21.0% of XC)
    Density eval.           ....       0.273 sec  ( 14.1% of XC)
    XC-Functional eval.     ....       0.682 sec  ( 35.1% of XC)
    XC-Potential eval.      ....       0.275 sec  ( 14.2% of XC)
Diagonalization             ....       0.020 sec  (  0.2%)
Density matrix formation    ....       0.002 sec  (  0.0%)
Population analysis         ....       0.016 sec  (  0.2%)
Initial guess               ....       0.163 sec  (  1.8%)
Orbital Transformation      ....       0.000 sec  (  0.0%)
Orbital Orthonormalization  ....       0.000 sec  (  0.0%)
DIIS solution               ....       0.017 sec  (  0.2%)
SOSCF solution              ....       0.019 sec  (  0.2%)
Grid generation             ....       1.347 sec  ( 15.1%)


-------------------------------------------------------------------------------
                          DFT DISPERSION CORRECTION                            
                                                                               
                              DFTD3 V3.1  Rev 1                                
                              USING zero damping                               
-------------------------------------------------------------------------------
The omegaB97X-D3 functional is recognized. Fit by Chai et al.
Active option DFTDOPT                   ...         3   

molecular C6(AA) [au] = 208.714673 


            DFT-D V3
 parameters
 s6 scaling factor         :     1.0000 
 rs6 scaling factor        :     1.2810 
 s8 scaling factor         :     1.0000 
 rs8 scaling factor        :     1.0940 
 Damping factor alpha6     :    14.0000 
 Damping factor alpha8     :    16.0000 
 ad hoc parameters k1-k3   :    16.0000     1.3333    -4.0000 

 Edisp/kcal,au: -0.150079723290  -0.000239167237 
 E6   /kcal   :  -0.029570902 
 E8   /kcal   :  -0.120508821 
 % E8         :  80.296537356 

-------------------------   ----------------
Dispersion correction           -0.000239167
-------------------------   ----------------


-------------------------   --------------------
FINAL SINGLE POINT ENERGY      -115.738050401516
-------------------------   --------------------



           ************************************************************
           *        Program running with 4 parallel MPI-processes     *
           *              working on a common directory               *
           ************************************************************
------------------------------------------------------------------------------
                         ORCA SCF GRADIENT CALCULATION
------------------------------------------------------------------------------

Gradient of the Kohn-Sham DFT energy:
Kohn-Sham wavefunction type      ... RKS
Hartree-Fock exchange scaling    ...    0.196
Number of operators              ...    1
Number of atoms                  ...    6
Basis set dimensions             ...   86
Integral neglect threshold       ... 2.5e-11
Integral primitive cutoff        ... 2.5e-12

Nuclear repulsion gradient       ... done
One Electron Gradient            ... done
Pre-screening matrix             ... done
Starting the two electron gradient:
Two electron gradient done
Exchange-correlation gradient    ... done
Dispersion correction            ... done

------------------
CARTESIAN GRADIENT
------------------

   1   C   :   -0.000094993    0.000054847   -0.000061261
   2   O   :    0.000461292    0.000758940   -0.000451729
   3   H   :   -0.000425880   -0.000798312    0.000485243
   4   H   :    0.000005709    0.000004012    0.000000616
   5   H   :    0.000045216   -0.000018872    0.000019046
   6   H   :    0.000008655   -0.000000615    0.000008086

Difference to translation invariance:
           :   -0.0000000000   -0.0000000000    0.0000000000

Norm of the cartesian gradient     ...    0.0014372591
RMS gradient                       ...    0.0003387652
MAX gradient                       ...    0.0007983121

-------
TIMINGS
-------

Total SCF gradient time            ...        1.621 sec

One electron gradient       ....       0.004 sec  (  0.3%)
Prescreening matrices       ....       0.024 sec  (  1.5%)
Two electron gradient       ....       0.893 sec  ( 55.1%)
XC gradient                 ....       0.405 sec  ( 25.0%)
------------------------------------------------------------------------------
                         ORCA GEOMETRY RELAXATION STEP
------------------------------------------------------------------------------

Reading the OPT-File                    .... done
Getting information on internals        .... done
Copying old internal coords+grads       .... done
Making the new internal coordinates     .... (new redundants).... done
Validating the new internal coordinates .... (new redundants).... done
Calculating the B-matrix                .... done
Calculating the G,G- and P matrices     .... done
Transforming gradient to internals      .... done
Projecting the internal gradient        .... done
Number of atoms                         ....   6
Number of internal coordinates          ....  15
Current Energy                          ....  -115.738050402 Eh
Current gradient norm                   ....     0.001437259 Eh/bohr
Maximum allowed component of the step   ....  0.300
Current trust radius                    ....  0.300
Evaluating the initial hessian          ....  (Almloef) done
Projecting the Hessian                  .... done
Forming the augmented Hessian           .... done
Diagonalizing the augmented Hessian     .... done
Last element of RFO vector              ....  0.999999945
Lowest eigenvalues of augmented Hessian:
 -0.000000034  0.021176482  0.181846219  0.192338574  0.313380729
Length of the computed step             ....  0.000330342
The final length of the internal step   ....  0.000330342
Converting the step to cartesian space:
 Initial RMS(Int)=    0.0000852940
Transforming coordinates:
 Iter   0:  RMS(Cart)=    0.0000797477 RMS(Int)=    1.6223021397
 Iter   1:  RMS(Cart)=    0.0000000084 RMS(Int)=    0.0000000085
Imposing constraints:
 Iter   0:  RMS(Cart)=    0.0000000009 RMS(Int)=    0.0000000000
CONVERGED
done
Storing new coordinates                 .... done

                                .--------------------.
          ----------------------|Geometry convergence|-------------------------
          Item                value                   Tolerance       Converged
          ---------------------------------------------------------------------
          RMS gradient        0.0000276130            0.0001000000      YES
          MAX gradient        0.0000771051            0.0003000000      YES
          RMS step            0.0000852940            0.0020000000      YES
          MAX step            0.0002480179            0.0040000000      YES
          ........................................................
          Max(Bonds)      0.0000      Max(Angles)    0.01
          Max(Dihed)        0.01      Max(Improp)    0.00
          ---------------------------------------------------------------------

                    ***********************HURRAY********************
                    ***        THE OPTIMIZATION HAS CONVERGED     ***
                    *************************************************


    ---------------------------------------------------------------------------
                         Redundant Internal Coordinates

                          --- Optimized Parameters ---  
                            (Angstroem and degrees)

        Definition                    OldVal   dE/dq     Step     FinalVal
    ----------------------------------------------------------------------------
     1. B(O   1,C   0)                1.4116  0.000040 -0.0000    1.4115   
     2. B(H   2,O   1)                0.9565 -0.001027  0.0000    0.9565 C 
     3. B(H   3,C   0)                1.0960 -0.000002  0.0000    1.0961   
     4. B(H   4,C   0)                1.0895  0.000008 -0.0000    1.0895   
     5. B(H   5,C   0)                1.0960 -0.000002  0.0000    1.0961   
     6. A(O   1,C   0,H   4)          107.02 -0.000077    0.01    107.03   
     7. A(O   1,C   0,H   3)          112.23  0.000005   -0.00    112.23   
     8. A(O   1,C   0,H   5)          112.23  0.000004   -0.00    112.23   
     9. A(H   3,C   0,H   5)          108.77  0.000014   -0.00    108.77   
    10. A(H   4,C   0,H   5)          108.22  0.000027   -0.00    108.21   
    11. A(H   3,C   0,H   4)          108.22  0.000027   -0.00    108.21   
    12. A(C   0,O   1,H   2)          108.75 -0.000042    0.01    108.76   
    13. D(H   2,O   1,C   0,H   5)    -61.43 -0.000014    0.01    -61.42   
    14. D(H   2,O   1,C   0,H   3)     61.43  0.000012   -0.00     61.43   
    15. D(H   2,O   1,C   0,H   4)    180.00 -0.000001    0.00    180.00   
    ----------------------------------------------------------------------------
                 *******************************************************
                 *** FINAL ENERGY EVALUATION AT THE STATIONARY POINT ***
                 ***               (AFTER    1 CYCLES)               ***
                 *******************************************************
---------------------------------
CARTESIAN COORDINATES (ANGSTROEM)
---------------------------------
  C      3.011545   -1.180551    0.598289
  O      4.394881   -1.127618    0.874024
  H      4.772036   -0.379365    0.412726
  H      2.806640   -1.318589   -0.469554
  H      2.611705   -2.039869    1.135631
  H      2.484982   -0.284134    0.945419

----------------------------
CARTESIAN COORDINATES (A.U.)
----------------------------
  NO LB      ZA    FRAG     MASS         X           Y           Z
   0 C     6.0000    0    12.011    5.690995   -2.230919    1.130603
   1 O     8.0000    0    15.999    8.305121   -2.130890    1.651666
   2 H     1.0000    0     1.008    9.017840   -0.716895    0.779938
   3 H     1.0000    0     1.008    5.303781   -2.491772   -0.887328
   4 H     1.0000    0     1.008    4.935407   -3.854795    2.146032
   5 H     1.0000    0     1.008    4.695935   -0.536935    1.786582

--------------------------------
INTERNAL COORDINATES (ANGSTROEM)
--------------------------------
 C      0   0   0     0.000000000000     0.00000000     0.00000000
 O      1   0   0     1.411541543652     0.00000000     0.00000000
 H      2   1   0     0.956517416759   108.75660865     0.00000000
 H      1   2   3     1.096051561029   112.22536822    61.42557499
 H      1   2   3     1.089511517694   107.03114854   180.00013700
 H      1   2   3     1.096052746521   112.22723761   298.57517985

---------------------------
INTERNAL COORDINATES (A.U.)
---------------------------
 C      0   0   0     0.000000000000     0.00000000     0.00000000
 O      1   0   0     2.667426944154     0.00000000     0.00000000
 H      2   1   0     1.807555960000   108.75660865     0.00000000
 H      1   2   3     2.071237279002   112.22536822    61.42557499
 H      1   2   3     2.058878388195   107.03114854   180.00013700
 H      1   2   3     2.071239519256   112.22723761   298.57517985

---------------------
BASIS SET INFORMATION
---------------------
There are 3 groups of distinct atoms

 Group   1 Type C   : 11s6p2d1f contracted to 5s3p2d1f pattern {62111/411/11/1}
 Group   2 Type O   : 11s6p2d1f contracted to 5s3p2d1f pattern {62111/411/11/1}
 Group   3 Type H   : 5s1p contracted to 3s1p pattern {311/1}

Atom   0C    basis set group =>   1
Atom   1O    basis set group =>   2
Atom   2H    basis set group =>   3
Atom   3H    basis set group =>   3
Atom   4H    basis set group =>   3
Atom   5H    basis set group =>   3


           ************************************************************
           *        Program running with 4 parallel MPI-processes     *
           *              working on a common directory               *
           ************************************************************
------------------------------------------------------------------------------
                           ORCA GTO INTEGRAL CALCULATION
------------------------------------------------------------------------------

                         BASIS SET STATISTICS AND STARTUP INFO

 # of primitive gaussian shells          ...   64
 # of primitive gaussian functions       ...  124
 # of contracted shells                  ...   38
 # of contracted basis functions         ...   86
 Highest angular momentum                ...    3
 Maximum contraction depth               ...    6
 Integral package used                   ... LIBINT
 Integral threshhold            Thresh   ...  2.500e-11
 Primitive cut-off              TCut     ...  2.500e-12


------------------------------ INTEGRAL EVALUATION ----------------------------


 * One electron integrals 
 Pre-screening matrix                    ... done
 Shell pair data                         ... done (   0.000 sec)



           ************************************************************
           *        Program running with 4 parallel MPI-processes     *
           *              working on a common directory               *
           ************************************************************
-------------------------------------------------------------------------------
                                 ORCA SCF
-------------------------------------------------------------------------------

------------
SCF SETTINGS
------------
Hamiltonian:
 Density Functional     Method          .... DFT(GTOs)
 Exchange Functional    Exchange        .... WB97X-D3
 Correlation Functional Correlation     .... WB97X-D3
 Gradients option       PostSCFGGA      .... off
 Hybrid DFT is turned on
   Fraction HF Exchange ScalHFX         ....  0.195728
   Scaling of DF-GGA-X  ScalDFX         ....  0.000000
   Scaling of DF-GGA-C  ScalDFC         ....  1.000000
   Scaling of DF-LDA-C  ScalLDAC        ....  1.000000
   Perturbative correction              ....  0.000000
   Density functional embedding theory  .... OFF
 Long-range corrected/Screened/Range-Separated Hybrid DFT is turned on
   Amount of maximum screened exact exchange              ....  0.804272
   Range separation parameter mu (erf(mu*r12)/r12)        ....  0.250000


General Settings:
 Integral files         IntName         .... 10_geo_opt
 Hartree-Fock type      HFTyp           .... RHF
 Total Charge           Charge          ....    0
 Multiplicity           Mult            ....    1
 Number of Electrons    NEL             ....   18
 Basis Dimension        Dim             ....   86
 Nuclear Repulsion      ENuc            ....     40.4440159580 Eh

Convergence Acceleration:
 DIIS                   CNVDIIS         .... on
   Start iteration      DIISMaxIt       ....    12
   Startup error        DIISStart       ....  0.200000
   # of expansion vecs  DIISMaxEq       ....     5
   Bias factor          DIISBfac        ....   1.050
   Max. coefficient     DIISMaxC        ....  10.000
 Newton-Raphson         CNVNR           .... off
 SOSCF                  CNVSOSCF        .... on
   Start iteration      SOSCFMaxIt      ....   150
   Startup grad/error   SOSCFStart      ....  0.003300
 Level Shifting         CNVShift        .... on
   Level shift para.    LevelShift      ....    0.2500
   Turn off err/grad.   ShiftErr        ....    0.0010
 Zerner damping         CNVZerner       .... off
 Static damping         CNVDamp         .... on
   Fraction old density DampFac         ....    0.7000
   Max. Damping (<1)    DampMax         ....    0.9800
   Min. Damping (>=0)   DampMin         ....    0.0000
   Turn off err/grad.   DampErr         ....    0.1000
 Fernandez-Rico         CNVRico         .... off

SCF Procedure:
 Maximum # iterations   MaxIter         ....   125
 SCF integral mode      SCFMode         .... Direct
   Integral package                     .... LIBINT
 Reset frequency        DirectResetFreq ....    20
 Integral Threshold     Thresh          ....  2.500e-11 Eh
 Primitive CutOff       TCut            ....  2.500e-12 Eh

Convergence Tolerance:
 Convergence Check Mode ConvCheckMode   .... Total+1el-Energy
 Convergence forced     ConvForced      .... 0
 Energy Change          TolE            ....  1.000e-08 Eh
 1-El. energy change                    ....  1.000e-05 Eh
 Orbital Gradient       TolG            ....  1.000e-05
 Orbital Rotation angle TolX            ....  1.000e-05
 DIIS Error             TolErr          ....  5.000e-07


Diagonalization of the overlap matrix:
Smallest eigenvalue                        ... 1.650e-03
Time for diagonalization                   ...    0.002 sec
Threshold for overlap eigenvalues          ... 1.000e-08
Number of eigenvalues below threshold      ... 0
Time for construction of square roots      ...    0.004 sec
Total time needed                          ...    0.006 sec

---------------------
INITIAL GUESS: MOREAD
---------------------
Guess MOs are being read from file: 10_geo_opt.gbw
Input Geometry matches current geometry (good)
Input basis set matches current basis set (good)
MOs were renormalized
MOs were reorthogonalized (Cholesky)
                      ------------------
                      INITIAL GUESS DONE (   0.0 sec)
                      ------------------
-------------------
DFT GRID GENERATION
-------------------

General Integration Accuracy     IntAcc      ...  5.010
Radial Grid Type                 RadialGrid  ... Gauss-Chebyshev
Angular Grid (max. acc.)         AngularGrid ... Lebedev-434
Angular grid pruning method      GridPruning ... 3 (G Style)
Weight generation scheme         WeightScheme... Becke
Basis function cutoff            BFCut       ...    1.0000e-11
Integration weight cutoff        WCut        ...    1.0000e-14
Grids for H and He will be reduced by one unit

# of grid points (after initial pruning)     ...  48308 (   0.0 sec)
# of grid points (after weights+screening)   ...  46677 (   0.0 sec)
nearest neighbour list constructed           ...    0.0 sec
Grid point re-assignment to atoms done       ...    0.0 sec
Grid point division into batches done        ...    0.3 sec
Reduced shell lists constructed in    0.3 sec

Total number of grid points                  ...    46677
Total number of batches                      ...      733
Average number of points per batch           ...       63
Average number of grid points per atom       ...     7780
Average number of shells per batch           ...    33.15 (87.23%)
Average number of basis functions per batch  ...    76.85 (89.37%)
Average number of large shells per batch     ...    30.59 (92.30%)
Average number of large basis fcns per batch ...    72.29 (94.06%)
Maximum spatial batch extension              ...  15.77, 14.99, 16.58 au
Average spatial batch extension              ...   0.40,  0.41,  0.42 au

Time for grid setup =    0.384 sec

--------------
SCF ITERATIONS
--------------
ITER       Energy         Delta-E        Max-DP      RMS-DP      [F,P]     Damp
               ***  Starting incremental Fock matrix formation  ***
                      *** Initiating the SOSCF procedure ***
                      *** Re-Reading the Fockian *** 
                      *** Removing any level shift *** 
ITER      Energy       Delta-E        Grad      Rot      Max-DP    RMS-DP
  0   -115.73770364 -115.7377036413  0.000010  0.000010  0.000013  0.000001
               *** Restarting incremental Fock matrix formation ***
  1   -115.73770364  -0.0000000033  0.000005  0.000005  0.000006  0.000000
                  ***Gradient check signals convergence***
              ***Rediagonalizing the Fockian in SOSCF/NRSCF***

               *****************************************************
               *                     SUCCESS                       *
               *           SCF CONVERGED AFTER   2 CYCLES          *
               *****************************************************

Setting up the final grid:

General Integration Accuracy     IntAcc      ...  5.340
Radial Grid Type                 RadialGrid  ... Gauss-Chebyshev
Angular Grid (max. acc.)         AngularGrid ... Lebedev-590
Angular grid pruning method      GridPruning ... 3 (G Style)
Weight generation scheme         WeightScheme... Becke
Basis function cutoff            BFCut       ...    1.0000e-11
Integration weight cutoff        WCut        ...    1.0000e-14
Grids for H and He will be reduced by one unit

# of grid points (after initial pruning)     ...  77324 (   0.0 sec)
# of grid points (after weights+screening)   ...  74512 (   0.0 sec)
nearest neighbour list constructed           ...    0.0 sec
Grid point re-assignment to atoms done       ...    0.0 sec
Grid point division into batches done        ...    0.8 sec
Reduced shell lists constructed in    0.8 sec

Total number of grid points                  ...    74512
Total number of batches                      ...     1167
Average number of points per batch           ...       63
Average number of grid points per atom       ...    12419
Average number of shells per batch           ...    32.93 (86.66%)
Average number of basis functions per batch  ...    76.37 (88.80%)
Average number of large shells per batch     ...    30.31 (92.03%)
Average number of large basis fcns per batch ...    71.50 (93.62%)
Maximum spatial batch extension              ...  13.18, 14.25, 15.48 au
Average spatial batch extension              ...   0.34,  0.36,  0.37 au

Final grid set up in    0.9 sec
Final integration                            ... done (   0.2 sec)
Change in XC energy                          ...    -0.000107605
Integrated number of electrons               ...    18.000000745
Previous integrated no of electrons          ...    18.000002268

----------------
TOTAL SCF ENERGY
----------------

Total Energy       :         -115.73781125 Eh           -3149.38596 eV

Components:
Nuclear Repulsion  :           40.44401596 Eh            1100.53762 eV
Electronic Energy  :         -156.18182721 Eh           -4249.92358 eV
One Electron Energy:         -237.30602460 Eh           -6457.42522 eV
Two Electron Energy:           81.12419739 Eh            2207.50164 eV

Virial components:
Potential Energy   :         -230.99028378 Eh           -6285.56517 eV
Kinetic Energy     :          115.25247253 Eh            3136.17922 eV
Virial Ratio       :            2.00421109


DFT components:
N(Alpha)           :        9.000000372443 electrons
N(Beta)            :        9.000000372443 electrons
N(Total)           :       18.000000744885 electrons
E(XC)              :      -10.656008155476 Eh       
DFET-embed. en.    :        0.000000000000 Eh       

---------------
SCF CONVERGENCE
---------------

  Last Energy change         ...   -4.0063e-10  Tolerance :   1.0000e-08
  Last MAX-Density change    ...    3.4413e-06  Tolerance :   1.0000e-07
  Last RMS-Density change    ...    2.2574e-07  Tolerance :   5.0000e-09
  Last Orbital Gradient      ...    2.4720e-06  Tolerance :   1.0000e-05
  Last Orbital Rotation      ...    3.0475e-06  Tolerance :   1.0000e-05

             **** THE GBW FILE WAS UPDATED (10_geo_opt.gbw) ****
             **** DENSITY FILE WAS UPDATED (10_geo_opt.scfp.tmp) ****
             **** ENERGY FILE WAS UPDATED (10_geo_opt.en.tmp) ****
----------------
ORBITAL ENERGIES
----------------

  NO   OCC          E(Eh)            E(eV) 
   0   2.0000     -19.228007      -523.2207 
   1   2.0000     -10.315120      -280.6887 
   2   2.0000      -1.137007       -30.9395 
   3   2.0000      -0.795445       -21.6451 
   4   2.0000      -0.611716       -16.6456 
   5   2.0000      -0.541789       -14.7428 
   6   2.0000      -0.526375       -14.3234 
   7   2.0000      -0.433827       -11.8050 
   8   2.0000      -0.373641       -10.1673 
   9   0.0000       0.116749         3.1769 
  10   0.0000       0.156718         4.2645 
  11   0.0000       0.202588         5.5127 
  12   0.0000       0.205112         5.5814 
  13   0.0000       0.226406         6.1608 
  14   0.0000       0.304338         8.2815 
  15   0.0000       0.313353         8.5268 
  16   0.0000       0.404528        11.0078 
  17   0.0000       0.452661        12.3175 
  18   0.0000       0.485281        13.2052 
  19   0.0000       0.535836        14.5808 
  20   0.0000       0.543672        14.7941 
  21   0.0000       0.567736        15.4489 
  22   0.0000       0.598570        16.2879 
  23   0.0000       0.603521        16.4226 
  24   0.0000       0.671477        18.2718 
  25   0.0000       0.779008        21.1979 
  26   0.0000       0.832210        22.6456 
  27   0.0000       0.861286        23.4368 
  28   0.0000       0.989583        26.9279 
  29   0.0000       1.013931        27.5905 
  30   0.0000       1.109770        30.1984 
  31   0.0000       1.382806        37.6281 
  32   0.0000       1.512966        41.1699 
  33   0.0000       1.553640        42.2767 
  34   0.0000       1.602869        43.6163 
  35   0.0000       1.613097        43.8946 
  36   0.0000       1.624175        44.1961 
  37   0.0000       1.660006        45.1711 
  38   0.0000       1.687984        45.9324 
  39   0.0000       1.774486        48.2862 
  40   0.0000       1.952188        53.1217 
  41   0.0000       2.030823        55.2615 
  42   0.0000       2.055246        55.9261 
  43   0.0000       2.094194        56.9859 
  44   0.0000       2.114719        57.5444 
  45   0.0000       2.268888        61.7396 
  46   0.0000       2.333415        63.4955 
  47   0.0000       2.345599        63.8270 
  48   0.0000       2.381197        64.7957 
  49   0.0000       2.429584        66.1123 
  50   0.0000       2.497660        67.9648 
  51   0.0000       2.596517        70.6548 
  52   0.0000       2.639937        71.8363 
  53   0.0000       2.708121        73.6917 
  54   0.0000       2.842496        77.3482 
  55   0.0000       2.871409        78.1350 
  56   0.0000       2.888606        78.6030 
  57   0.0000       2.992951        81.4423 
  58   0.0000       3.096080        84.2486 
  59   0.0000       3.173213        86.3475 
  60   0.0000       3.299211        89.7761 
  61   0.0000       3.408289        92.7443 
  62   0.0000       3.442245        93.6682 
  63   0.0000       3.488305        94.9216 
  64   0.0000       3.612609        98.3041 
  65   0.0000       3.645297        99.1936 
  66   0.0000       3.667107        99.7871 
  67   0.0000       4.006718       109.0283 
  68   0.0000       4.223800       114.9354 
  69   0.0000       4.273480       116.2873 
  70   0.0000       4.455750       121.2471 
  71   0.0000       4.564486       124.2060 
  72   0.0000       5.346102       145.4748 
  73   0.0000       5.425535       147.6363 
  74   0.0000       5.555125       151.1626 
  75   0.0000       5.826154       158.5377 
  76   0.0000       5.834444       158.7633 
  77   0.0000       5.986076       162.8894 
  78   0.0000       6.382545       173.6779 
  79   0.0000       6.531062       177.7192 
  80   0.0000       6.745412       183.5520 
  81   0.0000       6.804044       185.1475 
  82   0.0000       7.039474       191.5538 
  83   0.0000       7.216933       196.3827 
  84   0.0000      22.406231       609.7046 
  85   0.0000      43.663999      1188.1578 

                    ********************************
                    * MULLIKEN POPULATION ANALYSIS *
                    ********************************

-----------------------
MULLIKEN ATOMIC CHARGES
-----------------------
   0 C :   -0.150859
   1 O :   -0.477508
   2 H :    0.312882
   3 H :    0.098624
   4 H :    0.118232
   5 H :    0.098628
Sum of atomic charges:    0.0000000

--------------------------------
MULLIKEN REDUCED ORBITAL CHARGES
--------------------------------
  0 C s       :     3.223084  s :     3.223084
      pz      :     1.047268  p :     2.826113
      px      :     0.702194
      py      :     1.076651
      dz2     :     0.011106  d :     0.094240
      dxz     :     0.032495
      dyz     :     0.002644
      dx2y2   :     0.012737
      dxy     :     0.035258
      f0      :     0.001356  f :     0.007421
      f+1     :     0.000956
      f-1     :     0.000175
      f+2     :     0.001464
      f-2     :     0.000123
      f+3     :     0.001361
      f-3     :     0.001986
  1 O s       :     3.792515  s :     3.792515
      pz      :     1.759458  p :     4.652732
      px      :     1.313621
      py      :     1.579652
      dz2     :     0.003137  d :     0.030574
      dxz     :     0.006477
      dyz     :     0.005834
      dx2y2   :     0.008934
      dxy     :     0.006192
      f0      :     0.000270  f :     0.001687
      f+1     :     0.000233
      f-1     :     0.000087
      f+2     :     0.000288
      f-2     :     0.000236
      f+3     :     0.000368
      f-3     :     0.000206
  2 H s       :     0.639300  s :     0.639300
      pz      :     0.017054  p :     0.047817
      px      :     0.012755
      py      :     0.018009
  3 H s       :     0.882011  s :     0.882011
      pz      :     0.012072  p :     0.019365
      px      :     0.003007
      py      :     0.004286
  4 H s       :     0.861549  s :     0.861549
      pz      :     0.006297  p :     0.020220
      px      :     0.004194
      py      :     0.009728
  5 H s       :     0.882008  s :     0.882008
      pz      :     0.004929  p :     0.019364
      px      :     0.004977
      py      :     0.009458


                     *******************************
                     * LOEWDIN POPULATION ANALYSIS *
                     *******************************

----------------------
LOEWDIN ATOMIC CHARGES
----------------------
   0 C :   -0.385078
   1 O :   -0.075583
   2 H :    0.165160
   3 H :    0.093405
   4 H :    0.108692
   5 H :    0.093403

-------------------------------
LOEWDIN REDUCED ORBITAL CHARGES
-------------------------------
  0 C s       :     2.862903  s :     2.862903
      pz      :     1.096640  p :     3.052219
      px      :     0.846031
      py      :     1.109548
      dz2     :     0.072404  d :     0.412930
      dxz     :     0.114045
      dyz     :     0.020702
      dx2y2   :     0.082125
      dxy     :     0.123654
      f0      :     0.007823  f :     0.057026
      f+1     :     0.007162
      f-1     :     0.000855
      f+2     :     0.012526
      f-2     :     0.004831
      f+3     :     0.011735
      f-3     :     0.012094
  1 O s       :     3.365698  s :     3.365698
      pz      :     1.699031  p :     4.633649
      px      :     1.381099
      py      :     1.553519
      dz2     :     0.006131  d :     0.071586
      dxz     :     0.017866
      dyz     :     0.008092
      dx2y2   :     0.019346
      dxy     :     0.020151
      f0      :     0.000484  f :     0.004650
      f+1     :     0.000622
      f-1     :     0.000072
      f+2     :     0.001052
      f-2     :     0.000562
      f+3     :     0.000891
      f-3     :     0.000966
  2 H s       :     0.675296  s :     0.675296
      pz      :     0.055932  p :     0.159544
      px      :     0.034029
      py      :     0.069583
  3 H s       :     0.846770  s :     0.846770
      pz      :     0.036182  p :     0.059825
      px      :     0.009713
      py      :     0.013929
  4 H s       :     0.831712  s :     0.831712
      pz      :     0.019211  p :     0.059596
      px      :     0.011610
      py      :     0.028775
  5 H s       :     0.846772  s :     0.846772
      pz      :     0.015605  p :     0.059824
      px      :     0.015203
      py      :     0.029017


                      *****************************
                      * MAYER POPULATION ANALYSIS *
                      *****************************

  NA   - Mulliken gross atomic population
  ZA   - Total nuclear charge
  QA   - Mulliken gross atomic charge
  VA   - Mayer's total valence
  BVA  - Mayer's bonded valence
  FA   - Mayer's free valence

  ATOM       NA         ZA         QA         VA         BVA        FA
  0 C      6.1509     6.0000    -0.1509     3.9349     3.9349     0.0000
  1 O      8.4775     8.0000    -0.4775     1.8882     1.8882    -0.0000
  2 H      0.6871     1.0000     0.3129     0.9138     0.9138     0.0000
  3 H      0.9014     1.0000     0.0986     0.9596     0.9596     0.0000
  4 H      0.8818     1.0000     0.1182     0.9598     0.9598    -0.0000
  5 H      0.9014     1.0000     0.0986     0.9596     0.9596     0.0000

  Mayer bond orders larger than 0.1
B(  0-C ,  1-O ) :   0.9986 B(  0-C ,  3-H ) :   0.9755 B(  0-C ,  4-H ) :   0.9750 
B(  0-C ,  5-H ) :   0.9755 B(  1-O ,  2-H ) :   0.9004 

-------
TIMINGS
-------

Total SCF time: 0 days 0 hours 0 min 3 sec 

Total time                  ....       3.551 sec
Sum of individual times     ....       3.226 sec  ( 90.8%)

Fock matrix formation       ....       1.914 sec  ( 53.9%)
  XC integration            ....       0.616 sec  ( 32.2% of F)
    Basis function eval.    ....       0.138 sec  ( 22.4% of XC)
    Density eval.           ....       0.088 sec  ( 14.3% of XC)
    XC-Functional eval.     ....       0.221 sec  ( 36.0% of XC)
    XC-Potential eval.      ....       0.091 sec  ( 14.8% of XC)
Diagonalization             ....       0.010 sec  (  0.3%)
Density matrix formation    ....       0.001 sec  (  0.0%)
Population analysis         ....       0.012 sec  (  0.3%)
Initial guess               ....       0.003 sec  (  0.1%)
Orbital Transformation      ....       0.000 sec  (  0.0%)
Orbital Orthonormalization  ....       0.001 sec  (  0.0%)
DIIS solution               ....       0.000 sec  (  0.0%)
SOSCF solution              ....       0.004 sec  (  0.1%)
Grid generation             ....       1.282 sec  ( 36.1%)


-------------------------------------------------------------------------------
                          DFT DISPERSION CORRECTION                            
                                                                               
                              DFTD3 V3.1  Rev 1                                
                              USING zero damping                               
-------------------------------------------------------------------------------
The omegaB97X-D3 functional is recognized. Fit by Chai et al.
Active option DFTDOPT                   ...         3   

molecular C6(AA) [au] = 208.714673 


            DFT-D V3
 parameters
 s6 scaling factor         :     1.0000 
 rs6 scaling factor        :     1.2810 
 s8 scaling factor         :     1.0000 
 rs8 scaling factor        :     1.0940 
 Damping factor alpha6     :    14.0000 
 Damping factor alpha8     :    16.0000 
 ad hoc parameters k1-k3   :    16.0000     1.3333    -4.0000 

 Edisp/kcal,au: -0.150082137208  -0.000239171084 
 E6   /kcal   :  -0.029575332 
 E8   /kcal   :  -0.120506805 
 % E8         :  80.293902785 

-------------------------   ----------------
Dispersion correction           -0.000239171
-------------------------   ----------------


-------------------------   --------------------
FINAL SINGLE POINT ENERGY      -115.738050421581
-------------------------   --------------------

                                *** OPTIMIZATION RUN DONE ***

                            ***************************************
                            *     ORCA property calculations      *
                            ***************************************

                                    ---------------------
                                    Active property flags
                                    ---------------------
   (+) Dipole Moment


------------------------------------------------------------------------------
                       ORCA ELECTRIC PROPERTIES CALCULATION
------------------------------------------------------------------------------

Dipole Moment Calculation                       ... on
Quadrupole Moment Calculation                   ... off
Polarizability Calculation                      ... off
GBWName                                         ... 10_geo_opt.gbw
Electron density file                           ... 10_geo_opt.scfp.tmp
The origin for moment calculation is the CENTER OF MASS  = ( 7.033667, -2.139344  1.368844)

-------------
DIPOLE MOMENT
-------------
                                X             Y             Z
Electronic contribution:      1.75618      -0.02781       0.41953
Nuclear contribution   :     -2.06610       0.47517      -0.81702
                        -----------------------------------------
Total Dipole Moment    :     -0.30993       0.44736      -0.39749
                        -----------------------------------------
Magnitude (a.u.)       :      0.67393
Magnitude (Debye)      :      1.71299



--------------------
Rotational spectrum 
--------------------
 
Rotational constants in cm-1:     4.294756     0.833848     0.805016 
Rotational constants in MHz : 128753.542076 24998.124796 24133.779192 

 Dipole components along the rotational axes: 
x,y,z [a.u.] :    -0.333015     0.585903    -0.000005 
x,y,z [Debye]:    -0.846456     1.489248    -0.000012 

 
------------------------------------------------------------------------------
                      ORCA CHELPG CHARGES GENERATION
------------------------------------------------------------------------------

GBW file                           ... 10_geo_opt.gbw

Reading the GBW file               ... done

Grid spacing                       ...     0.300000
Point Cut-Off                      ...     2.800000
Van-der-Waals Radii                ...        COSMO
Total charge                       ...            0


Number of points X direction       ...           26
Number of points Y direction       ...           24
Number of points Z direction       ...           24
Maximum number of possible points  ...        14976
Final number of points             ...         5947


CHELPG Charges            
--------------------------------
  0   C   :       0.093828
  1   O   :      -0.607177
  2   H   :       0.404108
  3   H   :       0.014341
  4   H   :       0.081018
  5   H   :       0.013882
--------------------------------
Total charge:    -0.000000
--------------------------------

CHELPG charges calculated...

Timings for individual parts in CHELPG calculation:
Grid generation                 ...        0.002 sec (=   0.000 min)
Potential calculation           ...        0.783 sec (=   0.013 min)
Fit to the potential            ...        0.001 sec (=   0.000 min)
------------------------------------------------------------------------------


Timings for individual modules:

Sum of individual times         ...       30.805 sec (=   0.513 min)
GTO integral calculation        ...        5.662 sec (=   0.094 min)  18.4 %
SCF iterations                  ...       16.059 sec (=   0.268 min)  52.1 %
SCF Gradient evaluation         ...        2.249 sec (=   0.037 min)   7.3 %
Geometry relaxation             ...        3.088 sec (=   0.051 min)  10.0 %
CHELPG charge generation        ...        3.747 sec (=   0.062 min)  12.2 %
                             ****ORCA TERMINATED NORMALLY****
TOTAL RUN TIME: 0 days 0 hours 0 minutes 35 seconds 477 msec
