LAMMPS data file via vdw_self_gen.py, on 2021-08-05 13:24:35.311031

2500 atoms
3 atom types
2000 bonds
2 bond types
3000 angles
3 angle types

-30.9443650134799952  30.9443650134799952 xlo xhi
-30.9443650134799952  30.9443650134799952 ylo yhi
-30.9443650134799952  30.9443650134799952 zlo zhi

Masses

1  35.452700
2  1.007940
3  12.011000

Atoms

1         0    1   -0.1681892000000000   24.5466332232039655  10.5644354198284951  18.7905768938203259 0 0 0
2         0    3    0.2931948000000000   23.9331463630843118  10.3565999918796479  17.1463241144856369 0 0 0
3         0    1   -0.1681892000000000   25.1378517740800085  9.5841700841506814   16.1094219942912993 0 0 0
4         0    2    0.0215918000000000   23.6842605451408481  11.3370777145853801  16.7329687276761803 0 0 0
5         0    2    0.0215918000000000   23.0373053691352965  9.7316584786891092   17.1772777516154491 0 0 0
6         1    1   -0.1681892000000000  -16.3521088274793200  18.5358640317542864 -9.7341601789554755  0 0 0
7         1    3    0.2931948000000000  -17.2137042580937489  17.0738755478556357 -10.2274875366927720 0 0 0
8         1    1   -0.1681892000000000  -17.7729037045990026  17.1971314448739179 -11.8993825870408596 0 0 0
9         1    2    0.0215918000000000  -18.0773250593028685  16.9320844629712539 -9.5731192987210374  0 0 0
10        1    2    0.0215918000000000  -16.5405276324139514  16.2176139944337940 -10.1397920877231851 0 0 0
11        2    1   -0.1681892000000000   18.7368934917389751 -24.7408475203945102 -3.5245942990197592  0 0 0
12        2    3    0.2931948000000000   17.1420574846344707 -24.0100353645235138 -3.3111918663387958  0 0 0
13        2    1   -0.1681892000000000   16.2120577183498931 -24.0596885476663083 -4.8131120015704996  0 0 0
14        2    2    0.0215918000000000   17.2662078177714484 -22.9687142099969748 -3.0039780339394433  0 0 0
15        2    2    0.0215918000000000   16.5993529693941042 -24.5599116320631232 -2.5384376955092698  0 0 0
16        3    1   -0.1681892000000000   18.2674144331145314 -18.0349895217423288  9.3251276146085438  0 0 0
17        3    3    0.2931948000000000   17.0672001828581550 -17.2563266912782396  10.3625758518402531 0 0 0
18        3    1   -0.1681892000000000   17.5423321371985210 -15.5999624178496337  10.7547953263363922 0 0 0
19        3    2    0.0215918000000000   16.9732269399800586 -17.8282311718920390  11.2889870378569377 0 0 0
20        3    2    0.0215918000000000   16.1063957887376219 -17.2370596791266522  9.8424558584911903  0 0 0
21        4    1   -0.1681892000000000  -4.5487508479203758  -16.9402573143416966  2.1920701316107327  0 0 0
22        4    3    0.2931948000000000  -3.4766690696414337  -17.2697432655169045  3.5577965184322053  0 0 0
23        4    1   -0.1681892000000000  -1.8861672966608287  -16.5403395595828471  3.3099993424692569  0 0 0
24        4    2    0.0215918000000000  -3.3593446073162401  -18.3508819338018938  3.6651163273170093  0 0 0
25        4    2    0.0215918000000000  -3.9203820748388924  -16.8553474086455601  4.4663315765485709  0 0 0
26        5    1   -0.1681892000000000  -10.9175504568567714  17.5421753179204529 -1.9011279888894297  0 0 0
27        5    3    0.2931948000000000  -10.4032850129911161  17.1330263823045925 -3.5416331235141505  0 0 0
28        5    1   -0.1681892000000000  -8.6943206477256609   17.5105482328638757 -3.7866783175154510  0 0 0
29        5    2    0.0215918000000000  -11.0001082966070793  17.7067069187018653 -4.2549605386558937  0 0 0
30        5    2    0.0215918000000000  -10.5586772749527089  16.0641126300981085 -3.7069139278028551  0 0 0
31        6    1   -0.1681892000000000  -24.8503597177341184  18.6867822539757995  24.0889511294792200 0 0 0
32        6    3    0.2931948000000000  -23.9212696705265131  17.1840266306315961  24.0483787782143992 0 0 0
33        6    1   -0.1681892000000000  -24.9707835702943797  15.7796101816005674  24.2703339727585075 0 0 0
34        6    2    0.0215918000000000  -23.1786116237228512  17.2032651855775640  24.8497727477583226 0 0 0
35        6    2    0.0215918000000000  -23.4181726923665607  17.1028852301033645  23.0817606464339882 0 0 0
36        7    1   -0.1681892000000000   25.4281134328050875  17.3925656756513973 -4.4172222776880625  0 0 0
37        7    3    0.2931948000000000   24.0824900892866971  17.1809978163915531 -3.2913156415469440  0 0 0
38        7    1   -0.1681892000000000   22.5390877164991217  17.1085081840022575 -4.1490938561046091  0 0 0
39        7    2    0.0215918000000000   24.0640494342428788  18.0243156359754764 -2.5966082295282025  0 0 0
40        7    2    0.0215918000000000   24.2254566018106487  16.2501821698682107 -2.7370738915099428  0 0 0
41        8    1   -0.1681892000000000  -3.8592118876406145   18.1262436309984203 -15.8504494317249005 0 0 0
42        8    3    0.2931948000000000  -3.3757375365350453   17.0583900415290728 -17.1729735934249810 0 0 0
43        8    1   -0.1681892000000000  -3.7361417732548423   17.7849794155238605 -18.7431028123914558 0 0 0
44        8    2    0.0215918000000000  -3.9191556731184778   16.1144341032168192 -17.0847278781906020 0 0 0
45        8    2    0.0215918000000000  -2.3010670258287904   16.8725222906207080 -17.1053157661569522 0 0 0
46        9    1   -0.1681892000000000   10.2369002847363628  4.9179684789142737  -4.2467266107006232  0 0 0
47        9    3    0.2931948000000000   10.4335618593783082  3.4038185326509027  -3.3568934463995821  0 0 0
48        9    1   -0.1681892000000000   9.0269401852509201   2.3545440995859450  -3.5656222812338392  0 0 0
49        9    2    0.0215918000000000   10.5549297257239818  3.6288256151158613  -2.2944504856909567  0 0 0
50        9    2    0.0215918000000000   11.3216096340437460  2.8861571701107867  -3.7276210723527607  0 0 0
51        10   1   -0.1681892000000000   18.2960706250815122 -2.6330395466161853  -23.0777195687285150 0 0 0
52        10   3    0.2931948000000000   17.2379376623261500 -3.5106163507655066  -24.1882791038051579 0 0 0
53        10   1   -0.1681892000000000   15.5503768715995641 -3.4113326136021755  -23.6730991220151665 0 0 0
54        10   2    0.0215918000000000   17.5409442738307746 -4.5602311960908057  -24.2135587548557005 0 0 0
55        10   2    0.0215918000000000   17.3312400490508942 -3.0760941893031064  -25.1865407252398974 0 0 0
56        11   1   -0.1681892000000000  -22.4787951056740738 -3.5080869099819805  -2.8732212587193615  0 0 0
57        11   3    0.2931948000000000  -24.1680564179434612 -3.5367142159985128  -3.3915894591523799  0 0 0
58        11   1   -0.1681892000000000  -24.5044386333437991 -2.2364221068846954  -4.5401609774474725  0 0 0
59        11   2    0.0215918000000000  -24.8107845012451449 -3.4133880465425199  -2.5164696629172241  0 0 0
60        11   2    0.0215918000000000  -24.3771226164379620 -4.4967026169700652  -3.8698725381413253  0 0 0
61        12   1   -0.1681892000000000  -3.7058466001149899   17.6637099637457915 -1.8399980554452935  0 0 0
62        12   3    0.2931948000000000  -3.5363447777364208   17.1051540537429609 -3.5080548058621601  0 0 0
63        12   1   -0.1681892000000000  -2.0427111743445256   17.7095435444733660 -4.2339343405049110  0 0 0
64        12   2    0.0215918000000000  -4.3867989034323323   17.4655621825523966 -4.0919872948323217  0 0 0
65        12   2    0.0215918000000000  -3.5196124407495115   16.0125997373743800 -3.5173393997330900  0 0 0
66        13   1   -0.1681892000000000  -9.1215779643381083   16.2776465292562271  17.9598646233545232 0 0 0
67        13   3    0.2931948000000000  -10.2826770801750449  17.2682697103034606  17.0689979378316146 0 0 0
68        13   1   -0.1681892000000000  -11.8772314580848377  17.2201986341779261  17.8294021750823291 0 0 0
69        13   2    0.0215918000000000  -10.3641506028515398  16.8886813711588495  16.0475195245559732 0 0 0
70        13   2    0.0215918000000000  -9.9283045836838024   18.3017732369924246  17.0507852210644408 0 0 0
71        14   1   -0.1681892000000000  -16.0410563847377894  3.6410044630251064  -11.5333993256592038 0 0 0
72        14   3    0.2931948000000000  -17.3161145438426871  3.3633143789346076  -10.3416595037610382 0 0 0
73        14   1   -0.1681892000000000  -16.9065479721355416  4.0975260061283558  -8.7872086018881106  0 0 0
74        14   2    0.0215918000000000  -17.4456281068480514  2.2870709935838818  -10.2035660448773271 0 0 0
75        14   2    0.0215918000000000  -18.2472224743248219  3.8023980547058085  -10.7081082129476481 0 0 0
76        15   1   -0.1681892000000000   16.5455766446940267  4.1712037569397431   25.4444404131330408 0 0 0
77        15   3    0.2931948000000000   17.1165792704365565  3.3310235479416717   23.9983483991854065 0 0 0
78        15   1   -0.1681892000000000   18.6965393666935071  3.9383650623582489   23.4904197864828994 0 0 0
79        15   2    0.0215918000000000   16.3986475406991303  3.4872196706219487   23.1894477912020278 0 0 0
80        15   2    0.0215918000000000   17.1992266593656637  2.2635018585161619   24.2165408846410521 0 0 0
81        16   1   -0.1681892000000000   5.0447295960345730   17.7081255091821319  24.0306992260291175 0 0 0
82        16   3    0.2931948000000000   3.3568858611153432   17.2092527882424911  24.1901935199590774 0 0 0
83        16   1   -0.1681892000000000   2.7676027826514482   16.4680476408047873  22.6980509398589199 0 0 0
84        16   2    0.0215918000000000   2.7464583439125234   18.0869095038676058  24.4165567825697387 0 0 0
85        16   2    0.0215918000000000   3.2756373126638789   16.4842340397918861  25.0036968062275804 0 0 0
86        17   1   -0.1681892000000000  -3.6789075172248982  -18.5803018974104823  24.9962853155823126 0 0 0
87        17   3    0.2931948000000000  -3.3055920210326550  -17.1632826391285498  24.0084488630453130 0 0 0
88        17   1   -0.1681892000000000  -4.7231905012673350  -16.1245533424263172  23.8224781838810920 0 0 0
89        17   2    0.0215918000000000  -2.9757252543654809  -17.4950465530381578  23.0208943012230662 0 0 0
90        17   2    0.0215918000000000  -2.5078986024874017  -16.5933850498853914  24.4910906109126429 0 0 0
91        18   1   -0.1681892000000000  -10.7708620463371592 -22.5272979897249712  3.9558900964380870  0 0 0
92        18   3    0.2931948000000000  -10.4156092940337981 -24.1756278245587204  3.4268030217728040  0 0 0
93        18   1   -0.1681892000000000  -8.6993032191008339  -24.3689604917479805  3.0525771094608953  0 0 0
94        18   2    0.0215918000000000  -11.0019094265625341 -24.3958935014644460  2.5313262900404521  0 0 0
95        18   2    0.0215918000000000  -10.6862577030990114 -24.8714174671483121  4.2247173786655248  0 0 0
96        19   1   -0.1681892000000000   15.6485487585828320 -17.7633028990531407 -24.4445536483209125 0 0 0
97        19   3    0.2931948000000000   17.3003660234639725 -17.1994447001782511 -24.1676194503565043 0 0 0
98        19   1   -0.1681892000000000   17.4801234527832214 -16.5259796727658390 -22.5436547894242132 0 0 0
99        19   2    0.0215918000000000   17.5400980879903194 -16.4263773120228649 -24.9018120283008386 0 0 0
100       19   2    0.0215918000000000   17.9874331590685443 -18.0414648978687886 -24.2815573582419724 0 0 0
101       20   1   -0.1681892000000000  -4.8798527411392314   9.6934596010220435  -10.9352544978665804 0 0 0
102       20   3    0.2931948000000000  -3.3440891968341511   10.3872512874748946 -10.4030775284358832 0 0 0
103       20   1   -0.1681892000000000  -3.0794986864273306   10.1026975610342031 -8.6790850298816196  0 0 0
104       20   2    0.0215918000000000  -3.3572707512131461   11.4641955215473317 -10.5879038096360638 0 0 0
105       20   2    0.0215918000000000  -2.5306025207639160   9.9263377180548495  -10.9686208233131843 0 0 0
106       21   1   -0.1681892000000000   24.3746442653084863 -2.0323554623756905   11.1971174701210590 0 0 0
107       21   3    0.2931948000000000   24.1799460407026743 -3.5216625654268698   10.2658893299015510 0 0 0
108       21   1   -0.1681892000000000   22.4718843928705532 -3.8850567721306470   9.9945976893389314  0 0 0
109       21   2    0.0215918000000000   24.6362223234146782 -4.3478054637876635   10.8167461681295478 0 0 0
110       21   2    0.0215918000000000   24.6765002523480454 -3.4044336326569056   9.2995910316422314  0 0 0
111       22   1   -0.1681892000000000   11.8844232088006265 -9.9586551409333719  -24.5763911150118410 0 0 0
112       22   3    0.2931948000000000   10.2157169728281882 -10.3687883249771033 -24.1636694601730326 0 0 0
113       22   1   -0.1681892000000000   9.8843303325028149  -10.0497967068498006 -22.4573411392809490 0 0 0
114       22   2    0.0215918000000000   10.0497802705611505 -11.4297785909049132 -24.3659268638624305 0 0 0
115       22   2    0.0215918000000000   9.5396909044405351  -9.7669229254681529  -24.7758686963161807 0 0 0
116       23   1   -0.1681892000000000  -9.6539707947941515  -25.6164082300940947  17.0710467084842570 0 0 0
117       23   3    0.2931948000000000  -10.2347463838058150 -23.9566753049026779  17.2474417969752132 0 0 0
118       23   1   -0.1681892000000000  -11.8961057015070004 -23.7975969779558625  16.6663149606621239 0 0 0
119       23   2    0.0215918000000000  -9.5901083815608157  -23.2908474820565736  16.6684266440771296 0 0 0
120       23   2    0.0215918000000000  -10.1990104274655433 -23.6776692796352251  18.3033393716901536 0 0 0
121       24   1   -0.1681892000000000   16.6078896701529146 -9.0087148782297355   16.2952125832047408 0 0 0
122       24   3    0.2931948000000000   17.2411462208520021 -10.2943917694076053  17.3292096661251627 0 0 0
123       24   1   -0.1681892000000000   17.2018750274019787 -11.8553994137303782  16.5016578525020599 0 0 0
124       24   2    0.0215918000000000   16.6313812114956328 -10.3560108960791677  18.2339378614926204 0 0 0
125       24   2    0.0215918000000000   18.2742773519863491 -10.0594247316864447  17.5965515185643113 0 0 0
126       25   1   -0.1681892000000000   9.7549141339629699  -15.6181394834530636  16.9445905382476845 0 0 0
127       25   3    0.2931948000000000   10.4601448009892515 -17.2191379375688953  17.1947555861748889 0 0 0
128       25   1   -0.1681892000000000   9.2031699107934948  -18.4445841499228003  17.3982864254716425 0 0 0
129       25   2    0.0215918000000000   11.0837658489262463 -17.1968751298828373  18.0918311386585664 0 0 0
130       25   2    0.0215918000000000   11.0719469944613511 -17.4778327810612879  16.3271057933361199 0 0 0
131       26   1   -0.1681892000000000  -3.5820569507366189  -5.1195964216851442   24.1084558584568072 0 0 0
132       26   3    0.2931948000000000  -3.4403920743585314  -3.3601020428482768   24.1935410430795415 0 0 0
133       26   1   -0.1681892000000000  -3.2701597352440106  -2.6556825868720040   22.5817273822422528 0 0 0
134       26   2    0.0215918000000000  -2.5610772899770082  -3.1024492208988845   24.7889937483463711 0 0 0
135       26   2    0.0215918000000000  -4.3376278460615909  -2.9534836240734683   24.6664792425194612 0 0 0
136       27   1   -0.1681892000000000  -18.2854501495556150  16.2287077460963296 -24.9195815121283175 0 0 0
137       27   3    0.2931948000000000  -17.0727683674871571  17.1304325695913668 -24.0033805881317512 0 0 0
138       27   1   -0.1681892000000000  -17.4604480333237007  18.8540038053482135 -23.9571662130035321 0 0 0
139       27   2    0.0215918000000000  -16.0973632633975932  16.9978579572091526 -24.4778826913596816 0 0 0
140       27   2    0.0215918000000000  -17.0405396681248220  16.7455674036438289 -22.9811862700211655 0 0 0
141       28   1   -0.1681892000000000  -2.9024898055802106   18.3439683586267854 -22.9571890669151237 0 0 0
142       28   3    0.2931948000000000  -3.5177926768378143   17.2325297908131994 -24.1856985628485823 0 0 0
143       28   1   -0.1681892000000000  -3.0596560631414365   15.5646653462047908 -23.8231132155137644 0 0 0
144       28   2    0.0215918000000000  -3.1035790351128143   17.5119037753661182 -25.1575630732943232 0 0 0
145       28   2    0.0215918000000000  -4.6077963157054818   17.3035022108780012 -24.2156333560726473 0 0 0
146       29   1   -0.1681892000000000   16.1461639314106797  18.1030832305710234 -23.1057856596377391 0 0 0
147       29   3    0.2931948000000000   17.3346491557407880  17.1801820668863456 -24.0325462590476029 0 0 0
148       29   1   -0.1681892000000000   16.5882584007606475  16.4076842197816255 -25.4358555669333448 0 0 0
149       29   2    0.0215918000000000   17.7660840937563833  16.4090583575551285 -23.3896034077250725 0 0 0
150       29   2    0.0215918000000000   18.1214139002203893  17.8565616070947542 -24.3754063813006638 0 0 0
151       30   1   -0.1681892000000000  -4.8388814744508819  -23.3767117656449273 -9.6746172193666116  0 0 0
152       30   3    0.2931948000000000  -3.4468885859245155  -24.1625626266776372 -10.4282239586585455 0 0 0
153       30   1   -0.1681892000000000  -1.9384456667090659  -23.6698632611906952 -9.6504216758015531  0 0 0
154       30   2    0.0215918000000000  -3.4099496679247081  -23.8842395369804663 -11.4843087871540721 0 0 0
155       30   2    0.0215918000000000  -3.5571485013685984  -25.2458200841506972 -10.3363700481525598 0 0 0
156       31   1   -0.1681892000000000  -17.4127547950629271 -11.5174707457720391 -22.9043411837276558 0 0 0
157       31   3    0.2931948000000000  -17.3057403081378496 -10.2321754471996389 -24.1125186500197124 0 0 0
158       31   1   -0.1681892000000000  -15.6540789927552879 -10.0621980025103070 -24.7177059467020293 0 0 0
159       31   2    0.0215918000000000  -17.6163913085976773 -9.2888286498339383  -23.6567378181353689 0 0 0
160       31   2    0.0215918000000000  -17.9676040773351495 -10.4732688438173955 -24.9478936760596568 0 0 0
161       32   1   -0.1681892000000000  -16.0914321637068660  9.0717150366599562   24.3748218895132673 0 0 0
162       32   3    0.2931948000000000  -17.2912069876477581  10.3010013697597742  23.9594613496305726 0 0 0
163       32   1   -0.1681892000000000  -17.1423947749556156  11.7164960153993594  25.0070103604264169 0 0 0
164       32   2    0.0215918000000000  -18.2910985843118965  9.8758169375745748   24.0759876747583945 0 0 0
165       32   2    0.0215918000000000  -17.1404369712667695  10.6089123297396419  22.9219160003157896 0 0 0
166       33   1   -0.1681892000000000  -11.0448887454786977  8.9945408001586244   9.5577486380038366  0 0 0
167       33   3    0.2931948000000000  -10.3406034087454781  10.3424358827762592  10.4579096823274718 0 0 0
168       33   1   -0.1681892000000000  -9.2879606534029797   11.3172323950822911  9.4259968537799406  0 0 0
169       33   2    0.0215918000000000  -9.7544510740229811   9.9462997876004522   11.2907632261743078 0 0 0
170       33   2    0.0215918000000000  -11.1460378074831823  10.9734328235156795  10.8415232888477657 0 0 0
171       34   1   -0.1681892000000000   10.2263803555357580  22.4212089211345500  23.7072826814195707 0 0 0
172       34   3    0.2931948000000000   10.2748597263514547  24.1685868613623711  23.9669920952084112 0 0 0
173       34   1   -0.1681892000000000   10.8625183140162491  24.5559742324240595  25.5880156933049179 0 0 0
174       34   2    0.0215918000000000   9.2671174220897576   24.5740023195402415  23.8476725856060057 0 0 0
175       34   2    0.0215918000000000   10.9430658711400781  24.6194249401832188  23.2292342191055283 0 0 0
176       35   1   -0.1681892000000000  -8.6989706072778610   9.8416083541200070   17.0711347062344849 0 0 0
177       35   3    0.2931948000000000  -10.4060059181818509  10.2457280265986697  17.2852529741209651 0 0 0
178       35   1   -0.1681892000000000  -10.8817357431842670  11.5820049971393662  16.2311305485432911 0 0 0
179       35   2    0.0215918000000000  -10.5751834608512283  10.5354941971643008  18.3252327414011233 0 0 0
180       35   2    0.0215918000000000  -11.0120459596381277  9.3691061141109770   17.0438185115890413 0 0 0
181       36   1   -0.1681892000000000  -22.7357866400609581 -23.0382735049645468  23.9460259657067525 0 0 0
182       36   3    0.2931948000000000  -24.0701323092303667 -24.1752012942400754  24.1697350002626870 0 0 0
183       36   1   -0.1681892000000000  -25.3734706702961077 -23.8629467063853404  23.0178082293965289 0 0 0
184       36   2    0.0215918000000000  -24.4601961124371208 -24.0704786864279434  25.1851298967147628 0 0 0
185       36   2    0.0215918000000000  -23.6996115426198877 -25.1922970826265242  24.0204981825637169 0 0 0
186       37   1   -0.1681892000000000  -24.9296652733959654 -11.7544494757629483  24.2517996126249997 0 0 0
187       37   3    0.2931948000000000  -24.0692570053893178 -10.2127179679186018  24.1750502473778042 0 0 0
188       37   1   -0.1681892000000000  -23.1898433831184434 -10.0487671824956202  22.6509502121361521 0 0 0
189       37   2    0.0215918000000000  -23.3583245970356828 -10.1605387452098235  25.0032988998789847 0 0 0
190       37   2    0.0215918000000000  -24.7921070157050103 -9.3974683177463376   24.2580983026265038 0 0 0
191       38   1   -0.1681892000000000   8.7769795727719995   17.1356394758189587 -23.3741148452338656 0 0 0
192       38   3    0.2931948000000000   10.4136842135829468  17.0850632460688949 -24.0387717933900014 0 0 0
193       38   1   -0.1681892000000000   10.7154464917304750  18.4688938031543586 -25.0956926103217839 0 0 0
194       38   2    0.0215918000000000   10.5353911054199472  16.1644046228658844 -24.6147218979141016 0 0 0
195       38   2    0.0215918000000000   11.1324403056279486  17.1025683339807806 -23.2158961277846920 0 0 0
196       39   1   -0.1681892000000000   24.0813182858860912 -18.4065931223755719  2.2668858130284582  0 0 0
197       39   3    0.2931948000000000   24.1341839769964324 -17.0616048514186218  3.4120236495755312  0 0 0
198       39   1   -0.1681892000000000   23.2915968532815647 -17.4676454940397434  4.9114592207121284  0 0 0
199       39   2    0.0215918000000000   23.6548248719945633 -16.1900925424886140  2.9594482031190257  0 0 0
200       39   2    0.0215918000000000   25.1772732864857716 -16.8306334715663297  3.6414970099426212  0 0 0
201       40   1   -0.1681892000000000   25.5616832235351836  11.0585294090386679 -16.9373664863327598 0 0 0
202       40   3    0.2931948000000000   23.9425154845182604  10.3923475383066481 -17.1774215696675299 0 0 0
203       40   1   -0.1681892000000000   24.0151043902999000  8.6791135836290074  -17.6048433330313507 0 0 0
204       40   2    0.0215918000000000   23.4487622673611149  10.9395953674262962 -17.9841873132206445 0 0 0
205       40   2    0.0215918000000000   23.3711319089299678  10.5043557907327010 -16.2527507796366208 0 0 0
206       41   1   -0.1681892000000000  -9.3351363064988941  -22.7479095435581229 -17.5750797099466247 0 0 0
207       41   3    0.2931948000000000  -10.3134916900365994 -24.1245019603197690 -17.0545578980912715 0 0 0
208       41   1   -0.1681892000000000  -11.3092341757419916 -24.7363222941652978 -18.3801905311214000 0 0 0
209       41   2    0.0215918000000000  -10.9654713346612720 -23.8084335952326178 -16.2365317845189523 0 0 0
210       41   2    0.0215918000000000  -9.6506081821945866  -24.9220298813686192 -16.7102095582106323 0 0 0
211       42   1   -0.1681892000000000   4.9970165051291575  -3.1500156393860941   16.6113055502627596 0 0 0
212       42   3    0.2931948000000000   3.3545606032404014  -3.3260250732840064   17.2393884942516813 0 0 0
213       42   1   -0.1681892000000000   2.8420680694098355  -5.0171937047278155   17.2186723341731458 0 0 0
214       42   2    0.0215918000000000   2.6719065688656962  -2.7398759248849500   16.6192626714680998 0 0 0
215       42   2    0.0215918000000000   3.3257621497326704  -2.9582035540948981   18.2679404317331873 0 0 0
216       43   1   -0.1681892000000000   23.5855958796391185 -18.7660968921847768  24.4375811529951221 0 0 0
217       43   3    0.2931948000000000   23.9687483934283030 -17.0813469792969848  24.0661773603358711 0 0 0
218       43   1   -0.1681892000000000   25.6895387276641713 -16.8810816823471015  23.7170304959106204 0 0 0
219       43   2    0.0215918000000000   23.7052776277426176 -16.4590227384434691  24.9249200958365016 0 0 0
220       43   2    0.0215918000000000   23.3900366461702234 -16.7690211896165522  23.1934881695663400 0 0 0
221       44   1   -0.1681892000000000   2.0233405778334101  -2.9925767247327166  -23.2625020239521660 0 0 0
222       44   3    0.2931948000000000   3.5262715229438477  -3.3349007269351416  -24.1268756392052204 0 0 0
223       44   1   -0.1681892000000000   3.8410755663725618  -5.0725597047376283  -24.1944684465396485 0 0 0
224       44   2    0.0215918000000000   4.3539238320052300  -2.8433404539022522  -23.6096681912878417 0 0 0
225       44   2    0.0215918000000000   3.4467023972227353  -2.9479362860700271  -25.1456829736595360 0 0 0
226       45   1   -0.1681892000000000   25.0852068902482976 -23.5917197262010561 -25.3277929376209165 0 0 0
227       45   3    0.2931948000000000   24.0252044052770124 -24.2090759235158757 -24.0556314099477326 0 0 0
228       45   1   -0.1681892000000000   23.5405863182254329 -22.9198091259458643 -22.9483529757289304 0 0 0
229       45   2    0.0215918000000000   24.5568705684556718 -24.9802030716630270 -23.4927482931096705 0 0 0
230       45   2    0.0215918000000000   23.1313290924380439 -24.6383894273186215 -24.5146716582371695 0 0 0
231       46   1   -0.1681892000000000   16.6946147851562436  11.5586785821023490  2.4110158147205132  0 0 0
232       46   3    0.2931948000000000   17.2399612079435762  10.1866759435895027  3.3822701243979187  0 0 0
233       46   1   -0.1681892000000000   17.1284421684138337  10.5440187087706896  5.1094061203446870  0 0 0
234       46   2    0.0215918000000000   18.2800799201858553  9.9644213085388564   3.1314727309864820  0 0 0
235       46   2    0.0215918000000000   16.6134714001894110  9.3201471461319247   3.1571491059281644  0 0 0
236       47   1   -0.1681892000000000   4.1592112111012423   15.9046513077524363 -9.4938486233773940  0 0 0
237       47   3    0.2931948000000000   3.4754852360470685   17.3308527986835195 -10.2822628503559930 0 0 0
238       47   1   -0.1681892000000000   2.2891395468523679   16.8734005615457257 -11.5096382831257671 0 0 0
239       47   2    0.0215918000000000   4.2812958754420922   17.8943366126362555 -10.7590212752957797 0 0 0
240       47   2    0.0215918000000000   2.9861820269350265   17.9533282012709527 -9.5291706569784118  0 0 0
241       48   1   -0.1681892000000000  -22.9869486406065668 -17.9392039487956652  9.2557582201774817  0 0 0
242       48   3    0.2931948000000000  -24.0987550249704086 -17.2529858152347622  10.4457666789121593 0 0 0
243       48   1   -0.1681892000000000  -24.7933756232271492 -15.7343175960627075  9.8675987439190180  0 0 0
244       48   2    0.0215918000000000  -23.5540245647914723 -17.0643065626182775  11.3741051173522223 0 0 0
245       48   2    0.0215918000000000  -24.9060934210488121 -17.9657555591774667  10.6307129287724447 0 0 0
246       49   1   -0.1681892000000000   18.3617979912489346 -4.5440457973890940  -16.6849344205047956 0 0 0
247       49   3    0.2931948000000000   17.2072346354522239 -3.2940356433079856  -17.1619951788424032 0 0 0
248       49   1   -0.1681892000000000   15.8376455641281559 -3.9909978795741945  -18.0346912963016734 0 0 0
249       49   2    0.0215918000000000   17.7115391772634645 -2.5724763126490897  -17.8094304669968615 0 0 0
250       49   2    0.0215918000000000   16.8383521137961303 -2.7897582634574043  -16.2655181192431861 0 0 0
251       50   1   -0.1681892000000000  -22.7644531666643388  23.0328376110321251 -10.5961504528569375 0 0 0
252       50   3    0.2931948000000000  -24.1971592445151273  24.0453332721766984 -10.3832309242717944 0 0 0
253       50   1   -0.1681892000000000  -23.8841032136180260  25.3617682862944598 -9.2465146572888131  0 0 0
254       50   2    0.0215918000000000  -25.0137865298424700  23.4296457891217216 -9.9982735357619390  0 0 0
255       50   2    0.0215918000000000  -24.4796951200044823  24.4696123160194077 -11.3497721189538243 0 0 0
256       51   1   -0.1681892000000000  -16.3225203514828046  16.8355937022535578  4.8410707465045313  0 0 0
257       51   3    0.2931948000000000  -17.1370238466538254  17.1546326216189904  3.3055164103495298  0 0 0
258       51   1   -0.1681892000000000  -18.6843376151347869  17.9690090990555156  3.5619148334478790  0 0 0
259       51   2    0.0215918000000000  -17.3150165209260187  16.2058170675464126  2.7934509427036538  0 0 0
260       51   2    0.0215918000000000  -16.4976711476914666  17.7915169914143831  2.6893609633721791  0 0 0
261       52   1   -0.1681892000000000  -25.0649260202352728 -10.7966640687472459  4.7121636523089769  0 0 0
262       52   3    0.2931948000000000  -23.9636761662807665 -10.4062387407438681  3.3862881991012723  0 0 0
263       52   1   -0.1681892000000000  -24.2684258709473930 -8.7812201395641214   2.7621317605176263  0 0 0
264       52   2    0.0215918000000000  -24.1072221703956053 -11.1296765686292840  2.5799535013565302  0 0 0
265       52   2    0.0215918000000000  -22.9349470467854175 -10.4601421714488296  3.7507767830933458  0 0 0
266       53   1   -0.1681892000000000   10.2113396058763648  18.1290619132795108  18.5910053944353990 0 0 0
267       53   3    0.2931948000000000   10.4381867496447480  17.1926043667025148  17.1095478243972892 0 0 0
268       53   1   -0.1681892000000000   8.9991755752443119   16.2388483614054380  16.7317576461098767 0 0 0
269       53   2    0.0215918000000000   11.2874949306736649  16.5178322869612941  17.2418416070897180 0 0 0
270       53   2    0.0215918000000000   10.6377448276942417  17.8782225535401125  16.2824170098566263 0 0 0
271       54   1   -0.1681892000000000  -10.9146424795860142  15.9150646937627496 -9.3871180006277761  0 0 0
272       54   3    0.2931948000000000  -10.1923837744453749  17.1734099132593983 -10.3960969728658501 0 0 0