
                                 *****************
                                 * O   R   C   A *
                                 *****************

           --- An Ab Initio, DFT and Semiempirical electronic structure package ---

                  #######################################################
                  #                        -***-                        #
                  #          Department of theory and spectroscopy      #
                  #               Directorship: Frank Neese             #
                  #        Max Planck Institute fuer Kohlenforschung    #
                  #                Kaiser Wilhelm Platz 1               #
                  #                 D-45470 Muelheim/Ruhr               #
                  #                      Germany                        #
                  #                                                     #
                  #                  All rights reserved                #
                  #                        -***-                        #
                  #######################################################


                         Program Version 4.1.2  - RELEASE  -


 With contributions from (in alphabetic order):
   Daniel Aravena         : Magnetic Properties
   Michael Atanasov       : Ab Initio Ligand Field Theory
   Alexander A. Auer      : GIAO ZORA
   Ute Becker             : Parallelization
   Giovanni Bistoni       : ED, Open-shell LED
   Martin Brehm           : Molecular dynamics
   Dmytro Bykov           : SCF Hessian
   Vijay G. Chilkuri      : MRCI spin determinant printing
   Dipayan Datta          : RHF DLPNO-CCSD density
   Achintya Kumar Dutta   : EOM-CC, STEOM-CC
   Dmitry Ganyushin       : Spin-Orbit,Spin-Spin,Magnetic field MRCI
   Miquel Garcia          : C-PCM Hessian
   Yang Guo               : DLPNO-NEVPT2, CIM, IAO-localization
   Andreas Hansen         : Spin unrestricted coupled pair/coupled cluster methods
   Benjamin Helmich-Paris : CASSCF linear response (MC-RPA)
   Lee Huntington         : MR-EOM, pCC
   Robert Izsak           : Overlap fitted RIJCOSX, COSX-SCS-MP3, EOM
   Christian Kollmar      : KDIIS, OOCD, Brueckner-CCSD(T), CCSD density
   Simone Kossmann        : Meta GGA functionals, TD-DFT gradient, OOMP2, MP2 Hessian
   Martin Krupicka        : AUTO-CI
   Lucas Lang             : DCDCAS
   Dagmar Lenk            : GEPOL surface, SMD
   Dimitrios Liakos       : Extrapolation schemes; parallel MDCI
   Dimitrios Manganas     : ROCIS; embedding schemes
   Dimitrios Pantazis     : SARC Basis sets
   Taras Petrenko         : DFT Hessian,TD-DFT gradient, ASA, ECA, R-Raman, ABS, FL, XAS/XES, NRVS
   Peter Pinski           : DLPNO-MP2, DLPNO-MP2 Gradient
   Christoph Reimann      : Effective Core Potentials
   Marius Retegan         : Local ZFS, SOC
   Christoph Riplinger    : Optimizer, TS searches, QM/MM, DLPNO-CCSD(T), (RO)-DLPNO pert. Triples
   Tobias Risthaus        : Range-separated hybrids, TD-DFT gradient, RPA, STAB
   Michael Roemelt        : Restricted open shell CIS
   Masaaki Saitow         : Open-shell DLPNO
   Barbara Sandhoefer     : DKH picture change effects
   Avijit Sen             : IP-ROCIS
   Kantharuban Sivalingam : CASSCF convergence, NEVPT2, FIC-MRCI
   Bernardo de Souza      : ESD, SOC TD-DFT
   Georgi Stoychev        : AutoAux, RI-MP2 NMR
   Willem Van den Heuvel  : Paramagnetic NMR
   Boris Wezisla          : Elementary symmetry handling
   Frank Wennmohs         : Technical directorship


 We gratefully acknowledge several colleagues who have allowed us to
 interface, adapt or use parts of their codes:
   Stefan Grimme, W. Hujo, H. Kruse,             : VdW corrections, initial TS optimization,
                  C. Bannwarth                     DFT functionals, gCP, sTDA/sTD-DF
   Ed Valeev                                     : LibInt (2-el integral package), F12 methods
   Garnet Chan, S. Sharma, J. Yang, R. Olivares  : DMRG
   Ulf Ekstrom                                   : XCFun DFT Library
   Mihaly Kallay                                 : mrcc  (arbitrary order and MRCC methods)
   Andreas Klamt, Michael Diedenhofen            : otool_cosmo (COSMO solvation model)
   Jiri Pittner, Ondrej Demel                    : Mk-CCSD
   Frank Weinhold                                : gennbo (NPA and NBO analysis)
   Christopher J. Cramer and Donald G. Truhlar   : smd solvation model
   Lars Goerigk                                  : TD-DFT with DH, B97 family of functionals
   V. Asgeirsson, H. Jonsson                     : NEB implementation
   FAccTs GmbH                                   : IRC, NEB, NEB-TS, Multilevel


 Your calculation uses the libint2 library for the computation of 2-el integrals
 For citations please refer to: http://libint.valeyev.net

 This ORCA versions uses:
   CBLAS   interface :  Fast vector & matrix operations
   LAPACKE interface :  Fast linear algebra routines
   SCALAPACK package :  Parallel linear algebra routines


Your calculation utilizes the atom-pairwise dispersion correction
with the zero-damping scheme (D30)
Cite in your paper:
S.Grimme, J.Antony, S.Ehrlich and H.Krieg, J.Chem.Phys., 132, (2010), 154104 
   

XCFun DFT library Copyright 2009-2010 Ulf Ekstrom and contributors.
See http://admol.org/xcfun for more information. This is free soft-
ware; see the source code for copying conditions. There is ABSOLUTELY
NO WARRANTY; not even for MERCHANTABILITY or FITNESS FOR A PARTICULAR
PURPOSE. For details see the documentation. Scientific users of this 
library should cite U. Ekstrom, L. Visscher, R. Bast, A. J. Thorvald-
sen and K. Ruud; J.Chem.Theor.Comp. 2010, DOI: 10.1021/ct100117s
XCFun Version 0.99 
----- Orbital basis set information -----
Your calculation utilizes the basis: def2-TZVP
   F. Weigend and R. Ahlrichs, Phys. Chem. Chem. Phys. 7, 3297 (2005).

================================================================================
                                        WARNINGS
                       Please study these warnings very carefully!
================================================================================


INFO   : the flag for use of LIBINT has been found!

Your calculation utilizes the atom-pairwise dispersion correction
with the zero-damping scheme (D30)
Cite in your paper:
S.Grimme, J.Antony, S.Ehrlich and H.Krieg, J.Chem.Phys., 132, (2010), 154104 
   

XCFun DFT library Copyright 2009-2010 Ulf Ekstrom and contributors.
See http://admol.org/xcfun for more information. This is free soft-
ware; see the source code for copying conditions. There is ABSOLUTELY
NO WARRANTY; not even for MERCHANTABILITY or FITNESS FOR A PARTICULAR
PURPOSE. For details see the documentation. Scientific users of this 
library should cite U. Ekstrom, L. Visscher, R. Bast, A. J. Thorvald-
sen and K. Ruud; J.Chem.Theor.Comp. 2010, DOI: 10.1021/ct100117s
XCFun Version 0.99 
----- Orbital basis set information -----
Your calculation utilizes the basis: def2-TZVP
   F. Weigend and R. Ahlrichs, Phys. Chem. Chem. Phys. 7, 3297 (2005).

================================================================================
                                        WARNINGS
                       Please study these warnings very carefully!
================================================================================


WARNING: MOInp is set but Guess=PModel. MOInp will be ignored!
         To read the initial guess from a file you must also specify
         'MORead' in the simple input or 'Guess MORead' in the %scf block


INFO   : the flag for use of LIBINT has been found!

Your calculation utilizes the atom-pairwise dispersion correction
with the zero-damping scheme (D30)
Cite in your paper:
S.Grimme, J.Antony, S.Ehrlich and H.Krieg, J.Chem.Phys., 132, (2010), 154104 
   

XCFun DFT library Copyright 2009-2010 Ulf Ekstrom and contributors.
See http://admol.org/xcfun for more information. This is free soft-
ware; see the source code for copying conditions. There is ABSOLUTELY
NO WARRANTY; not even for MERCHANTABILITY or FITNESS FOR A PARTICULAR
PURPOSE. For details see the documentation. Scientific users of this 
library should cite U. Ekstrom, L. Visscher, R. Bast, A. J. Thorvald-
sen and K. Ruud; J.Chem.Theor.Comp. 2010, DOI: 10.1021/ct100117s
XCFun Version 0.99 
----- Orbital basis set information -----
Your calculation utilizes the basis: def2-TZVP
   F. Weigend and R. Ahlrichs, Phys. Chem. Chem. Phys. 7, 3297 (2005).

================================================================================
                                        WARNINGS
                       Please study these warnings very carefully!
================================================================================


WARNING: MOInp is set but Guess=PModel. MOInp will be ignored!
         To read the initial guess from a file you must also specify
         'MORead' in the simple input or 'Guess MORead' in the %scf block


INFO   : the flag for use of LIBINT has been found!

================================================================================
                                       INPUT FILE
================================================================================
NAME = 13-38.in
|  1> #Run DFT-D3 single point of the dimer
|  2> ! wB97X-D3 def2-TZVP TIGHTSCF CHELPG PMODEL PAL8
|  3> 
|  4> %base "13-38_DFT_AB"
|  5> 
|  6> %scf
|  7> MaxIter 1000
|  8> end
|  9> 
| 10> * xyz 0 1
| 11>   C                      2.238468             -1.442492            -1.376394           
| 12>   O                      1.121689             -1.733540            -0.514272           
| 13>   H                      1.431541             -2.499082            -0.058163           
| 14>   H                      3.190386             -1.760322            -0.835746           
| 15>   H                      2.025457             -1.974779            -2.354060           
| 16>   H                      2.293692             -0.377440            -1.575006           
| 17>   C                      5.160119             -4.518508            -1.480591           
| 18>   O                      6.307349             -3.679778            -1.437952           
| 19>   H                      6.918061             -4.117089            -2.025001           
| 20>   H                      4.300942             -3.910907            -1.216338           
| 21>   H                      4.971459             -5.059759            -2.422785           
| 22>   H                      5.262418             -5.328838            -0.725788           
| 23> *
| 24> 
| 25> #Run DFT-D3 single point of the molecule with dimer basis set
| 26> $new_job
| 27> %base "13-38_DFT_A"
| 28> ! wB97X-D3 def2-TZVP TIGHTSCF CHELPG PMODEL
| 29> 
| 30> %scf
| 31> MaxIter 1000
| 32> end
| 33> 
| 34> * xyz 0 1
| 35>   C                      2.238468             -1.442492            -1.376394           
| 36>   O                      1.121689             -1.733540            -0.514272           
| 37>   H                      1.431541             -2.499082            -0.058163           
| 38>   H                      3.190386             -1.760322            -0.835746           
| 39>   H                      2.025457             -1.974779            -2.354060           
| 40>   H                      2.293692             -0.377440            -1.575006           
| 41>   C                    : 5.160119             -4.518508            -1.480591           
| 42>   O                    : 6.307349             -3.679778            -1.437952           
| 43>   H                    : 6.918061             -4.117089            -2.025001           
| 44>   H                    : 4.300942             -3.910907            -1.216338           
| 45>   H                    : 4.971459             -5.059759            -2.422785           
| 46>   H                    : 5.262418             -5.328838            -0.725788           
| 47> *
| 48> 
| 49> #Run DFT-D3 single point of the particle with dimer basis set
| 50> $new_job
| 51> %base "13-38_DFT_B"
| 52> ! wB97X-D3 def2-TZVP TIGHTSCF CHELPG PMODEL
| 53> 
| 54> %scf
| 55> MaxIter 1000
| 56> end
| 57> 
| 58> * xyz 0 1
| 59>   C                    : 2.238468             -1.442492            -1.376394           
| 60>   O                    : 1.121689             -1.733540            -0.514272           
| 61>   H                    : 1.431541             -2.499082            -0.058163           
| 62>   H                    : 3.190386             -1.760322            -0.835746           
| 63>   H                    : 2.025457             -1.974779            -2.354060           
| 64>   H                    : 2.293692             -0.377440            -1.575006           
| 65>   C                      5.160119             -4.518508            -1.480591           
| 66>   O                      6.307349             -3.679778            -1.437952           
| 67>   H                      6.918061             -4.117089            -2.025001           
| 68>   H                      4.300942             -3.910907            -1.216338           
| 69>   H                      4.971459             -5.059759            -2.422785           
| 70>   H                      5.262418             -5.328838            -0.725788           
| 71> *
| 72> 
| 73>                          ****END OF INPUT****
================================================================================


                 $$$$$$$$$$$$$$$$$$$$$$$$$$$$$$$$$$$$$$$$$$$$$$ 
                 $ THERE ARE  3 JOBS TO BE PROCESSED THIS RUN $
                 $$$$$$$$$$$$$$$$$$$$$$$$$$$$$$$$$$$$$$$$$$$$$$ 




                 $$$$$$$$$$$$$$$$  JOB NUMBER  1 $$$$$$$$$$$$$$


                       ****************************
                       * Single Point Calculation *
                       ****************************

---------------------------------
CARTESIAN COORDINATES (ANGSTROEM)
---------------------------------
  C      2.238468   -1.442492   -1.376394
  O      1.121689   -1.733540   -0.514272
  H      1.431541   -2.499082   -0.058163
  H      3.190386   -1.760322   -0.835746
  H      2.025457   -1.974779   -2.354060
  H      2.293692   -0.377440   -1.575006
  C      5.160119   -4.518508   -1.480591
  O      6.307349   -3.679778   -1.437952
  H      6.918061   -4.117089   -2.025001
  H      4.300942   -3.910907   -1.216338
  H      4.971459   -5.059759   -2.422785
  H      5.262418   -5.328838   -0.725788

----------------------------
CARTESIAN COORDINATES (A.U.)
----------------------------
  NO LB      ZA    FRAG     MASS         X           Y           Z
   0 C     6.0000    0    12.011    4.230091   -2.725915   -2.601008
   1 O     8.0000    0    15.999    2.119685   -3.275916   -0.971833
   2 H     1.0000    0     1.008    2.705220   -4.722581   -0.109912
   3 H     1.0000    0     1.008    6.028956   -3.326526   -1.579331
   4 H     1.0000    0     1.008    3.827559   -3.731791   -4.448529
   5 H     1.0000    0     1.008    4.334450   -0.713258   -2.976330
   6 C     6.0000    0    12.011    9.751212   -8.538743   -2.797912
   7 O     8.0000    0    15.999   11.919162   -6.953773   -2.717335
   8 H     1.0000    0     1.008   13.073241   -7.780171   -3.826697
   9 H     1.0000    0     1.008    8.127602   -7.390543   -2.298546
  10 H     1.0000    0     1.008    9.394696   -9.561559   -4.578400
  11 H     1.0000    0     1.008    9.944529  -10.070044   -1.371541

--------------------------------
INTERNAL COORDINATES (ANGSTROEM)
--------------------------------
 C      0   0   0     0.000000000000     0.00000000     0.00000000
 O      1   0   0     1.440541084464     0.00000000     0.00000000
 H      2   1   0     0.943450176506   101.45862255     0.00000000
 H      1   2   3     1.139940370163   107.89097675   327.98322947
 H      1   2   3     1.133372817764   106.00128571    92.61039326
 H      1   2   3     1.084818961589   110.32801477   209.55824628
 C      4   1   2     3.450110603431   127.66202970   105.80910524
 O      7   4   1     1.421767481032    89.05229415   132.39421011
 H      8   7   4     0.953329211797   103.16962911   209.02170353
 H      7   4   1     1.084985594623    19.03526608   298.77858210
 H      7   4   1     1.102848481994   117.02399051    12.37106240
 H      7   4   1     1.112127404172   120.54170553   244.70041739

---------------------------
INTERNAL COORDINATES (A.U.)
---------------------------
 C      0   0   0     0.000000000000     0.00000000     0.00000000
 O      1   0   0     2.722228134299     0.00000000     0.00000000
 H      2   1   0     1.782862454596   101.45862255     0.00000000
 H      1   2   3     2.154175108609   107.89097675   327.98322947
 H      1   2   3     2.141764233204   106.00128571    92.61039326
 H      1   2   3     2.050010742289   110.32801477   209.55824628
 C      4   1   2     6.519764172223   127.66202970   105.80910524
 O      7   4   1     2.686751165266    89.05229415   132.39421011
 H      8   7   4     1.801531125764   103.16962911   209.02170353
 H      7   4   1     2.050325633087    19.03526608   298.77858210
 H      7   4   1     2.084081598180   117.02399051    12.37106240
 H      7   4   1     2.101616219914   120.54170553   244.70041739

---------------------
BASIS SET INFORMATION
---------------------
There are 3 groups of distinct atoms

 Group   1 Type C   : 11s6p2d1f contracted to 5s3p2d1f pattern {62111/411/11/1}
 Group   2 Type O   : 11s6p2d1f contracted to 5s3p2d1f pattern {62111/411/11/1}
 Group   3 Type H   : 5s1p contracted to 3s1p pattern {311/1}

Atom   0C    basis set group =>   1
Atom   1O    basis set group =>   2
Atom   2H    basis set group =>   3
Atom   3H    basis set group =>   3
Atom   4H    basis set group =>   3
Atom   5H    basis set group =>   3
Atom   6C    basis set group =>   1
Atom   7O    basis set group =>   2
Atom   8H    basis set group =>   3
Atom   9H    basis set group =>   3
Atom  10H    basis set group =>   3
Atom  11H    basis set group =>   3


           ************************************************************
           *        Program running with 8 parallel MPI-processes     *
           *              working on a common directory               *
           ************************************************************
------------------------------------------------------------------------------
                           ORCA GTO INTEGRAL CALCULATION
------------------------------------------------------------------------------

                         BASIS SET STATISTICS AND STARTUP INFO

 # of primitive gaussian shells          ...  128
 # of primitive gaussian functions       ...  248
 # of contracted shells                  ...   76
 # of contracted basis functions         ...  172
 Highest angular momentum                ...    3
 Maximum contraction depth               ...    6
 Integral package used                   ... LIBINT
 Integral threshhold            Thresh   ...  2.500e-11
 Primitive cut-off              TCut     ...  2.500e-12


------------------------------ INTEGRAL EVALUATION ----------------------------


 * One electron integrals 
 Pre-screening matrix                    ... done
 Shell pair data                         ... done (   0.001 sec)



           ************************************************************
           *        Program running with 8 parallel MPI-processes     *
           *              working on a common directory               *
           ************************************************************
-------------------------------------------------------------------------------
                                 ORCA SCF
-------------------------------------------------------------------------------

------------
SCF SETTINGS
------------
Hamiltonian:
 Density Functional     Method          .... DFT(GTOs)
 Exchange Functional    Exchange        .... WB97X-D3
 Correlation Functional Correlation     .... WB97X-D3
 Gradients option       PostSCFGGA      .... off
 Hybrid DFT is turned on
   Fraction HF Exchange ScalHFX         ....  0.195728
   Scaling of DF-GGA-X  ScalDFX         ....  0.000000
   Scaling of DF-GGA-C  ScalDFC         ....  1.000000
   Scaling of DF-LDA-C  ScalLDAC        ....  1.000000
   Perturbative correction              ....  0.000000
   Density functional embedding theory  .... OFF
 Long-range corrected/Screened/Range-Separated Hybrid DFT is turned on
   Amount of maximum screened exact exchange              ....  0.804272
   Range separation parameter mu (erf(mu*r12)/r12)        ....  0.250000


General Settings:
 Integral files         IntName         .... 13-38_DFT_AB
 Hartree-Fock type      HFTyp           .... RHF
 Total Charge           Charge          ....    0
 Multiplicity           Mult            ....    1
 Number of Electrons    NEL             ....   36
 Basis Dimension        Dim             ....  172
 Nuclear Repulsion      ENuc            ....    116.1461589124 Eh

Convergence Acceleration:
 DIIS                   CNVDIIS         .... on
   Start iteration      DIISMaxIt       ....    12
   Startup error        DIISStart       ....  0.200000
   # of expansion vecs  DIISMaxEq       ....     5
   Bias factor          DIISBfac        ....   1.050
   Max. coefficient     DIISMaxC        ....  10.000
 Newton-Raphson         CNVNR           .... off
 SOSCF                  CNVSOSCF        .... on
   Start iteration      SOSCFMaxIt      ....   150
   Startup grad/error   SOSCFStart      ....  0.003300
 Level Shifting         CNVShift        .... on
   Level shift para.    LevelShift      ....    0.2500
   Turn off err/grad.   ShiftErr        ....    0.0010
 Zerner damping         CNVZerner       .... off
 Static damping         CNVDamp         .... on
   Fraction old density DampFac         ....    0.7000
   Max. Damping (<1)    DampMax         ....    0.9800
   Min. Damping (>=0)   DampMin         ....    0.0000
   Turn off err/grad.   DampErr         ....    0.1000
 Fernandez-Rico         CNVRico         .... off

SCF Procedure:
 Maximum # iterations   MaxIter         ....  1000
 SCF integral mode      SCFMode         .... Direct
   Integral package                     .... LIBINT
 Reset frequency        DirectResetFreq ....    20
 Integral Threshold     Thresh          ....  2.500e-11 Eh
 Primitive CutOff       TCut            ....  2.500e-12 Eh

Convergence Tolerance:
 Convergence Check Mode ConvCheckMode   .... Total+1el-Energy
 Convergence forced     ConvForced      .... 0
 Energy Change          TolE            ....  1.000e-08 Eh
 1-El. energy change                    ....  1.000e-05 Eh
 Orbital Gradient       TolG            ....  1.000e-05
 Orbital Rotation angle TolX            ....  1.000e-05
 DIIS Error             TolErr          ....  5.000e-07


Diagonalization of the overlap matrix:
Smallest eigenvalue                        ... 1.171e-03
Time for diagonalization                   ...    0.004 sec
Threshold for overlap eigenvalues          ... 1.000e-08
Number of eigenvalues below threshold      ... 0
Time for construction of square roots      ...    0.004 sec
Total time needed                          ...    0.008 sec

-------------------
DFT GRID GENERATION
-------------------

General Integration Accuracy     IntAcc      ...  4.340
Radial Grid Type                 RadialGrid  ... Gauss-Chebyshev
Angular Grid (max. acc.)         AngularGrid ... Lebedev-110
Angular grid pruning method      GridPruning ... 3 (G Style)
Weight generation scheme         WeightScheme... Becke
Basis function cutoff            BFCut       ...    1.0000e-11
Integration weight cutoff        WCut        ...    1.0000e-14
Grids for H and He will be reduced by one unit

# of grid points (after initial pruning)     ...  13096 (   0.0 sec)
# of grid points (after weights+screening)   ...  12554 (   0.0 sec)
nearest neighbour list constructed           ...    0.0 sec
Grid point re-assignment to atoms done       ...    0.0 sec
Grid point division into batches done        ...    0.0 sec
Reduced shell lists constructed in    0.0 sec

Total number of grid points                  ...    12554
Total number of batches                      ...      202
Average number of points per batch           ...       62
Average number of grid points per atom       ...     1046
Average number of shells per batch           ...    45.26 (59.55%)
Average number of basis functions per batch  ...    98.22 (57.11%)
Average number of large shells per batch     ...    37.11 (82.00%)
Average number of large basis fcns per batch ...    82.81 (84.31%)
Maximum spatial batch extension              ...  14.03, 15.94, 13.78 au
Average spatial batch extension              ...   0.39,  0.40,  0.38 au

Time for grid setup =    0.036 sec

------------------------------
INITIAL GUESS: MODEL POTENTIAL
------------------------------
Loading Hartree-Fock densities                     ... done
Calculating cut-offs                               ... done
Setting up the integral package                    ... done
Initializing the effective Hamiltonian             ... done
Starting the Coulomb interaction                   ... done (   0.0 sec)
Reading the grid                                   ... done
Mapping shells                                     ... done
Starting the XC term evaluation                    ... done (   0.0 sec)
  promolecular density results
     # of electrons  =     35.994345327
     EX              =    -28.842986362
     EC              =     -1.150084635
     EX+EC           =    -29.993070997
Transforming the Hamiltonian                       ... done (   0.0 sec)
Diagonalizing the Hamiltonian                      ... done (   0.0 sec)
Back transforming the eigenvectors                 ... done (   0.0 sec)
Now organizing SCF variables                       ... done
                      ------------------
                      INITIAL GUESS DONE (   0.1 sec)
                      ------------------
--------------
SCF ITERATIONS
--------------
ITER       Energy         Delta-E        Max-DP      RMS-DP      [F,P]     Damp
               ***  Starting incremental Fock matrix formation  ***
  0   -231.2970123710   0.000000000000 0.03668250  0.00106571  0.2521842 0.7000
  1   -231.3689522541  -0.071939883087 0.02178629  0.00075592  0.1250660 0.7000
                               ***Turning on DIIS***
  2   -231.4017792992  -0.032827045105 0.03095951  0.00135827  0.0478080 0.0000
  3   -231.4551483305  -0.053369031351 0.01738195  0.00049711  0.0609141 0.0000
  4   -231.4639447827  -0.008796452225 0.00417604  0.00009904  0.0061560 0.0000
                      *** Initiating the SOSCF procedure ***
                           *** Shutting down DIIS ***
                      *** Re-Reading the Fockian *** 
                      *** Removing any level shift *** 
ITER      Energy       Delta-E        Grad      Rot      Max-DP    RMS-DP
  5   -231.46413156  -0.0001867772  0.000438  0.000438  0.000736  0.000034
               *** Restarting incremental Fock matrix formation ***
  6   -231.46414814  -0.0000165810  0.000144  0.000228  0.000467  0.000020
  7   -231.46414986  -0.0000017199  0.000047  0.000129  0.000205  0.000009
  8   -231.46415001  -0.0000001520  0.000019  0.000016  0.000037  0.000001
  9   -231.46415002  -0.0000000087  0.000012  0.000008  0.000016  0.000001
                  ***Gradient check signals convergence***
              ***Rediagonalizing the Fockian in SOSCF/NRSCF***

               *****************************************************
               *                     SUCCESS                       *
               *           SCF CONVERGED AFTER  10 CYCLES          *
               *****************************************************

Setting up the final grid:

General Integration Accuracy     IntAcc      ...  4.670
Radial Grid Type                 RadialGrid  ... Gauss-Chebyshev
Angular Grid (max. acc.)         AngularGrid ... Lebedev-302
Angular grid pruning method      GridPruning ... 3 (G Style)
Weight generation scheme         WeightScheme... Becke
Basis function cutoff            BFCut       ...    1.0000e-11
Integration weight cutoff        WCut        ...    1.0000e-14
Grids for H and He will be reduced by one unit

# of grid points (after initial pruning)     ...  52000 (   0.0 sec)
# of grid points (after weights+screening)   ...  49397 (   0.0 sec)
nearest neighbour list constructed           ...    0.0 sec
Grid point re-assignment to atoms done       ...    0.0 sec
Grid point division into batches done        ...    0.2 sec
Reduced shell lists constructed in    0.2 sec

Total number of grid points                  ...    49397
Total number of batches                      ...      778
Average number of points per batch           ...       63
Average number of grid points per atom       ...     4116
Average number of shells per batch           ...    44.05 (57.96%)
Average number of basis functions per batch  ...    95.59 (55.57%)
Average number of large shells per batch     ...    35.72 (81.08%)
Average number of large basis fcns per batch ...    79.64 (83.31%)
Maximum spatial batch extension              ...  15.93, 16.05, 17.31 au
Average spatial batch extension              ...   0.27,  0.29,  0.28 au

Final grid set up in    0.3 sec
Final integration                            ... done (   0.1 sec)
Change in XC energy                          ...    -0.000433833
Integrated number of electrons               ...    35.999901874
Previous integrated no of electrons          ...    35.999591548

----------------
TOTAL SCF ENERGY
----------------

Total Energy       :         -231.46458386 Eh           -6298.47153 eV

Components:
Nuclear Repulsion  :          116.14615891 Eh            3160.49766 eV
Electronic Energy  :         -347.61074277 Eh           -9458.96920 eV
One Electron Energy:         -545.04169386 Eh          -14831.33850 eV
Two Electron Energy:          197.43095109 Eh            5372.36931 eV

Virial components:
Potential Energy   :         -461.86676782 Eh          -12568.03370 eV
Kinetic Energy     :          230.40218396 Eh            6269.56216 eV
Virial Ratio       :            2.00461107


DFT components:
N(Alpha)           :       17.999950936945 electrons
N(Beta)            :       17.999950936945 electrons
N(Total)           :       35.999901873890 electrons
E(XC)              :      -21.282933965259 Eh       
DFET-embed. en.    :        0.000000000000 Eh       

---------------
SCF CONVERGENCE
---------------

  Last Energy change         ...   -4.8971e-09  Tolerance :   1.0000e-08
  Last MAX-Density change    ...    3.4115e-06  Tolerance :   1.0000e-07
  Last RMS-Density change    ...    1.1151e-07  Tolerance :   5.0000e-09
  Last Orbital Gradient      ...    1.7541e-06  Tolerance :   1.0000e-05
  Last Orbital Rotation      ...    2.1683e-06  Tolerance :   1.0000e-05

             **** THE GBW FILE WAS UPDATED (13-38_DFT_AB.gbw) ****
             **** DENSITY FILE WAS UPDATED (13-38_DFT_AB.scfp.tmp) ****
             **** ENERGY FILE WAS UPDATED (13-38_DFT_AB.en.tmp) ****
----------------
ORBITAL ENERGIES
----------------

  NO   OCC          E(Eh)            E(eV) 
   0   2.0000     -19.238557      -523.5078 
   1   2.0000     -19.225671      -523.1571 
   2   2.0000     -10.322247      -280.8826 
   3   2.0000     -10.321868      -280.8723 
   4   2.0000      -1.145487       -31.1703 
   5   2.0000      -1.133863       -30.8540 
   6   2.0000      -0.800366       -21.7791 
   7   2.0000      -0.786073       -21.3901 
   8   2.0000      -0.620160       -16.8754 
   9   2.0000      -0.600199       -16.3323 
  10   2.0000      -0.542139       -14.7523 
  11   2.0000      -0.539185       -14.6720 
  12   2.0000      -0.529690       -14.4136 
  13   2.0000      -0.523035       -14.2325 
  14   2.0000      -0.453915       -12.3516 
  15   2.0000      -0.435567       -11.8524 
  16   2.0000      -0.378702       -10.3050 
  17   2.0000      -0.371274       -10.1029 
  18   0.0000       0.099140         2.6977 
  19   0.0000       0.114946         3.1278 
  20   0.0000       0.153553         4.1784 
  21   0.0000       0.157239         4.2787 
  22   0.0000       0.182015         4.9529 
  23   0.0000       0.195311         5.3147 
  24   0.0000       0.201715         5.4889 
  25   0.0000       0.213750         5.8164 
  26   0.0000       0.236639         6.4393 
  27   0.0000       0.239263         6.5107 
  28   0.0000       0.290649         7.9090 
  29   0.0000       0.310836         8.4583 
  30   0.0000       0.314415         8.5557 
  31   0.0000       0.381208        10.3732 
  32   0.0000       0.399701        10.8764 
  33   0.0000       0.410154        11.1608 
  34   0.0000       0.450306        12.2534 
  35   0.0000       0.473103        12.8738 
  36   0.0000       0.495218        13.4756 
  37   0.0000       0.500680        13.6242 
  38   0.0000       0.517423        14.0798 
  39   0.0000       0.529084        14.3971 
  40   0.0000       0.534138        14.5346 
  41   0.0000       0.556808        15.1515 
  42   0.0000       0.575546        15.6614 
  43   0.0000       0.582918        15.8620 
  44   0.0000       0.602950        16.4071 
  45   0.0000       0.616326        16.7711 
  46   0.0000       0.620516        16.8851 
  47   0.0000       0.646020        17.5791 
  48   0.0000       0.686524        18.6813 
  49   0.0000       0.734566        19.9886 
  50   0.0000       0.752142        20.4668 
  51   0.0000       0.764356        20.7992 
  52   0.0000       0.800463        21.7817 
  53   0.0000       0.817331        22.2407 
  54   0.0000       0.851998        23.1840 
  55   0.0000       0.902457        24.5571 
  56   0.0000       0.984804        26.7979 
  57   0.0000       1.003223        27.2991 
  58   0.0000       1.040601        28.3162 
  59   0.0000       1.058906        28.8143 
  60   0.0000       1.108941        30.1758 
  61   0.0000       1.126472        30.6529 
  62   0.0000       1.359131        36.9838 
  63   0.0000       1.389107        37.7995 
  64   0.0000       1.474414        40.1209 
  65   0.0000       1.487184        40.4683 
  66   0.0000       1.540814        41.9277 
  67   0.0000       1.570484        42.7351 
  68   0.0000       1.591105        43.2962 
  69   0.0000       1.609601        43.7995 
  70   0.0000       1.614800        43.9409 
  71   0.0000       1.624256        44.1982 
  72   0.0000       1.640468        44.6394 
  73   0.0000       1.658611        45.1331 
  74   0.0000       1.667139        45.3652 
  75   0.0000       1.681180        45.7472 
  76   0.0000       1.685265        45.8584 
  77   0.0000       1.712400        46.5968 
  78   0.0000       1.766534        48.0698 
  79   0.0000       1.786989        48.6265 
  80   0.0000       1.959171        53.3118 
  81   0.0000       1.965187        53.4755 
  82   0.0000       2.024249        55.0826 
  83   0.0000       2.037241        55.4361 
  84   0.0000       2.046419        55.6859 
  85   0.0000       2.054135        55.8959 
  86   0.0000       2.090246        56.8785 
  87   0.0000       2.113426        57.5092 
  88   0.0000       2.134785        58.0905 
  89   0.0000       2.150382        58.5149 
  90   0.0000       2.240751        60.9739 
  91   0.0000       2.247559        61.1592 
  92   0.0000       2.285439        62.1900 
  93   0.0000       2.297463        62.5171 
  94   0.0000       2.336242        63.5724 
  95   0.0000       2.357229        64.1435 
  96   0.0000       2.397412        65.2369 
  97   0.0000       2.414715        65.7077 
  98   0.0000       2.436533        66.3014 
  99   0.0000       2.471099        67.2420 
 100   0.0000       2.496855        67.9429 
 101   0.0000       2.514959        68.4355 
 102   0.0000       2.556034        69.5532 
 103   0.0000       2.582200        70.2652 
 104   0.0000       2.605259        70.8927 
 105   0.0000       2.638116        71.7868 
 106   0.0000       2.670889        72.6786 
 107   0.0000       2.700439        73.4827 
 108   0.0000       2.797978        76.1369 
 109   0.0000       2.822979        76.8172 
 110   0.0000       2.865051        77.9620 
 111   0.0000       2.872319        78.1598 
 112   0.0000       2.907066        79.1053 
 113   0.0000       2.964810        80.6766 
 114   0.0000       2.973499        80.9130 
 115   0.0000       2.989286        81.3426 
 116   0.0000       3.092084        84.1399 
 117   0.0000       3.101400        84.3934 
 118   0.0000       3.134688        85.2992 
 119   0.0000       3.187116        86.7258 
 120   0.0000       3.266202        88.8779 
 121   0.0000       3.294607        89.6508 
 122   0.0000       3.365660        91.5843 
 123   0.0000       3.412071        92.8472 
 124   0.0000       3.414786        92.9210 
 125   0.0000       3.433129        93.4202 
 126   0.0000       3.458636        94.1143 
 127   0.0000       3.520318        95.7927 
 128   0.0000       3.593530        97.7849 
 129   0.0000       3.596098        97.8548 
 130   0.0000       3.619643        98.4955 
 131   0.0000       3.638945        99.0207 
 132   0.0000       3.643878        99.1550 
 133   0.0000       3.678644       100.1010 
 134   0.0000       4.008441       109.0752 
 135   0.0000       4.025993       109.5528 
 136   0.0000       4.154882       113.0601 
 137   0.0000       4.223667       114.9318 
 138   0.0000       4.265862       116.0800 
 139   0.0000       4.287219       116.6612 
 140   0.0000       4.415078       120.1404 
 141   0.0000       4.425534       120.4249 
 142   0.0000       4.550072       123.8138 
 143   0.0000       4.560342       124.0932 
 144   0.0000       5.351304       145.6164 
 145   0.0000       5.355202       145.7225 
 146   0.0000       5.446068       148.1951 
 147   0.0000       5.457101       148.4953 
 148   0.0000       5.537501       150.6831 
 149   0.0000       5.546703       150.9335 
 150   0.0000       5.716830       155.5629 
 151   0.0000       5.749932       156.4636 
 152   0.0000       5.787173       157.4770 
 153   0.0000       5.803773       157.9287 
 154   0.0000       5.991622       163.0403 
 155   0.0000       6.002458       163.3352 
 156   0.0000       6.353455       172.8863 
 157   0.0000       6.378232       173.5605 
 158   0.0000       6.520568       177.4337 
 159   0.0000       6.542164       178.0213 
 160   0.0000       6.772744       184.2957 
 161   0.0000       6.786874       184.6802 
 162   0.0000       6.793309       184.8553 
 163   0.0000       6.816702       185.4919 
 164   0.0000       7.016126       190.9185 
 165   0.0000       7.019893       191.0210 
 166   0.0000       7.199771       195.9157 
 167   0.0000       7.215451       196.3424 
 168   0.0000      22.241479       605.2214 
 169   0.0000      22.354512       608.2972 
 170   0.0000      43.632267      1187.2944 
 171   0.0000      43.684425      1188.7136 

                    ********************************
                    * MULLIKEN POPULATION ANALYSIS *
                    ********************************

-----------------------
MULLIKEN ATOMIC CHARGES
-----------------------
   0 C :   -0.180281
   1 O :   -0.464273
   2 H :    0.310238
   3 H :    0.109963
   4 H :    0.103111
   5 H :    0.124666
   6 C :   -0.160104
   7 O :   -0.460938
   8 H :    0.313880
   9 H :    0.089155
  10 H :    0.111737
  11 H :    0.102846
Sum of atomic charges:    0.0000000

--------------------------------
MULLIKEN REDUCED ORBITAL CHARGES
--------------------------------
  0 C s       :     3.257314  s :     3.257314
      pz      :     0.926782  p :     2.820973
      px      :     0.808798
      py      :     1.085393
      dz2     :     0.029337  d :     0.094650
      dxz     :     0.013633
      dyz     :     0.015583
      dx2y2   :     0.020543
      dxy     :     0.015553
      f0      :     0.000603  f :     0.007344
      f+1     :     0.001900
      f-1     :     0.000518
      f+2     :     0.001452
      f-2     :     0.001153
      f+3     :     0.000547
      f-3     :     0.001170
  1 O s       :     3.802477  s :     3.802477
      pz      :     1.575635  p :     4.629625
      px      :     1.533682
      py      :     1.520308
      dz2     :     0.003332  d :     0.030591
      dxz     :     0.008420
      dyz     :     0.004431
      dx2y2   :     0.008312
      dxy     :     0.006096
      f0      :     0.000274  f :     0.001580
      f+1     :     0.000189
      f-1     :     0.000122
      f+2     :     0.000384
      f-2     :     0.000329
      f+3     :     0.000230
      f-3     :     0.000052
  2 H s       :     0.639890  s :     0.639890
      pz      :     0.017376  p :     0.049872
      px      :     0.013508
      py      :     0.018988
  3 H s       :     0.871950  s :     0.871950
      pz      :     0.004756  p :     0.018087
      px      :     0.009475
      py      :     0.003856
  4 H s       :     0.878168  s :     0.878168
      pz      :     0.010287  p :     0.018721
      px      :     0.003127
      py      :     0.005307
  5 H s       :     0.855106  s :     0.855106
      pz      :     0.004209  p :     0.020228
      px      :     0.003298
      py      :     0.012721
  6 C s       :     3.220955  s :     3.220955
      pz      :     1.069862  p :     2.834450
      px      :     0.826553
      py      :     0.938036
      dz2     :     0.004925  d :     0.097180
      dxz     :     0.020476
      dyz     :     0.020622
      dx2y2   :     0.032160
      dxy     :     0.018997
      f0      :     0.001021  f :     0.007519
      f+1     :     0.000328
      f-1     :     0.001005
      f+2     :     0.000173
      f-2     :     0.001396
      f+3     :     0.002257
      f-3     :     0.001339
  7 O s       :     3.803773  s :     3.803773
      pz      :     1.708771  p :     4.624341
      px      :     1.311341
      py      :     1.604229
      dz2     :     0.003677  d :     0.031219
      dxz     :     0.006184
      dyz     :     0.005751
      dx2y2   :     0.004170
      dxy     :     0.011438
      f0      :     0.000219  f :     0.001605
      f+1     :     0.000254
      f-1     :     0.000149
      f+2     :     0.000083
      f-2     :     0.000448
      f+3     :     0.000168
      f-3     :     0.000285
  8 H s       :     0.637686  s :     0.637686
      pz      :     0.018260  p :     0.048434
      px      :     0.015215
      py      :     0.014959
  9 H s       :     0.890239  s :     0.890239
      pz      :     0.004909  p :     0.020606
      px      :     0.009407
      py      :     0.006290
 10 H s       :     0.869410  s :     0.869410
      pz      :     0.009894  p :     0.018853
      px      :     0.003103
      py      :     0.005855
 11 H s       :     0.877564  s :     0.877564
      pz      :     0.008336  p :     0.019590
      px      :     0.002929
      py      :     0.008325


                     *******************************
                     * LOEWDIN POPULATION ANALYSIS *
                     *******************************

----------------------
LOEWDIN ATOMIC CHARGES
----------------------
   0 C :   -0.374372
   1 O :   -0.094734
   2 H :    0.156486
   3 H :    0.106142
   4 H :    0.104698
   5 H :    0.102164
   6 C :   -0.386485
   7 O :   -0.075380
   8 H :    0.167004
   9 H :    0.098150
  10 H :    0.098449
  11 H :    0.097879

-------------------------------
LOEWDIN REDUCED ORBITAL CHARGES
-------------------------------
  0 C s       :     2.892726  s :     2.892726
      pz      :     0.996225  p :     3.040489
      px      :     0.930320
      py      :     1.113945
      dz2     :     0.097709  d :     0.388302
      dxz     :     0.087332
      dyz     :     0.057600
      dx2y2   :     0.098282
      dxy     :     0.047379
      f0      :     0.005578  f :     0.052855
      f+1     :     0.012553
      f-1     :     0.004199
      f+2     :     0.009200
      f-2     :     0.009009
      f+3     :     0.004665
      f-3     :     0.007650
  1 O s       :     3.385555  s :     3.385555
      pz      :     1.553074  p :     4.636691
      px      :     1.577379
      py      :     1.506238
      dz2     :     0.009285  d :     0.067910
      dxz     :     0.017524
      dyz     :     0.012945
      dx2y2   :     0.016789
      dxy     :     0.011367
      f0      :     0.000687  f :     0.004578
      f+1     :     0.000776
      f-1     :     0.000080
      f+2     :     0.000825
      f-2     :     0.000973
      f+3     :     0.000890
      f-3     :     0.000346
  2 H s       :     0.676969  s :     0.676969
      pz      :     0.050002  p :     0.166544
      px      :     0.045671
      py      :     0.070871
  3 H s       :     0.839969  s :     0.839969
      pz      :     0.014416  p :     0.053888
      px      :     0.026932
      py      :     0.012539
  4 H s       :     0.840650  s :     0.840650
      pz      :     0.028658  p :     0.054652
      px      :     0.009418
      py      :     0.016576
  5 H s       :     0.836223  s :     0.836223
      pz      :     0.012469  p :     0.061613
      px      :     0.010449
      py      :     0.038695
  6 C s       :     2.866821  s :     2.866821
      pz      :     1.109358  p :     3.055827
      px      :     0.927901
      py      :     1.018568
      dz2     :     0.040550  d :     0.408728
      dxz     :     0.065119
      dyz     :     0.095722
      dx2y2   :     0.097624
      dxy     :     0.109713
      f0      :     0.006030  f :     0.055108
      f+1     :     0.005540
      f-1     :     0.004386
      f+2     :     0.005269
      f-2     :     0.008374
      f+3     :     0.014606
      f-3     :     0.010904
  7 O s       :     3.378021  s :     3.378021
      pz      :     1.653632  p :     4.622580
      px      :     1.348823
      py      :     1.620124
      dz2     :     0.006063  d :     0.070074
      dxz     :     0.017346
      dyz     :     0.008921
      dx2y2   :     0.014053
      dxy     :     0.023691
      f0      :     0.000465  f :     0.004706
      f+1     :     0.000493
      f-1     :     0.000354
      f+2     :     0.000091
      f-2     :     0.001422
      f+3     :     0.000988
      f-3     :     0.000892
  8 H s       :     0.671713  s :     0.671713
      pz      :     0.061446  p :     0.161283
      px      :     0.047242
      py      :     0.052595
  9 H s       :     0.840922  s :     0.840922
      pz      :     0.015189  p :     0.060928
      px      :     0.026087
      py      :     0.019651
 10 H s       :     0.841906  s :     0.841906
      pz      :     0.030704  p :     0.059645
      px      :     0.011023
      py      :     0.017917
 11 H s       :     0.844463  s :     0.844463
      pz      :     0.024176  p :     0.057658
      px      :     0.009594
      py      :     0.023888


                      *****************************
                      * MAYER POPULATION ANALYSIS *
                      *****************************

  NA   - Mulliken gross atomic population
  ZA   - Total nuclear charge
  QA   - Mulliken gross atomic charge
  VA   - Mayer's total valence
  BVA  - Mayer's bonded valence
  FA   - Mayer's free valence

  ATOM       NA         ZA         QA         VA         BVA        FA
  0 C      6.1803     6.0000    -0.1803     3.9356     3.9356    -0.0000
  1 O      8.4643     8.0000    -0.4643     1.8853     1.8853     0.0000
  2 H      0.6898     1.0000     0.3102     0.9158     0.9158     0.0000
  3 H      0.8900     1.0000     0.1100     0.9625     0.9625     0.0000
  4 H      0.8969     1.0000     0.1031     0.9594     0.9594    -0.0000
  5 H      0.8753     1.0000     0.1247     0.9569     0.9569     0.0000
  6 C      6.1601     6.0000    -0.1601     3.9561     3.9561     0.0000
  7 O      8.4609     8.0000    -0.4609     1.9006     1.9006     0.0000
  8 H      0.6861     1.0000     0.3139     0.9150     0.9150     0.0000
  9 H      0.9108     1.0000     0.0892     0.9533     0.9533    -0.0000
 10 H      0.8883     1.0000     0.1117     0.9587     0.9587     0.0000
 11 H      0.8972     1.0000     0.1028     0.9579     0.9579     0.0000

  Mayer bond orders larger than 0.1
B(  0-C ,  1-O ) :   0.9953 B(  0-C ,  3-H ) :   0.9806 B(  0-C ,  4-H ) :   0.9743 
B(  0-C ,  5-H ) :   0.9719 B(  1-O ,  2-H ) :   0.9092 B(  6-C ,  7-O ) :   1.0164 
B(  6-C ,  9-H ) :   0.9764 B(  6-C , 10-H ) :   0.9755 B(  6-C , 11-H ) :   0.9802 
B(  7-O ,  8-H ) :   0.9040 

-------
TIMINGS
-------

Total SCF time: 0 days 0 hours 0 min 17 sec 

Total time                  ....      17.002 sec
Sum of individual times     ....      16.487 sec  ( 97.0%)

Fock matrix formation       ....      15.795 sec  ( 92.9%)
  XC integration            ....       7.449 sec  ( 47.2% of F)
    Basis function eval.    ....       0.059 sec  (  0.8% of XC)
    Density eval.           ....       0.153 sec  (  2.1% of XC)
    XC-Functional eval.     ....       0.126 sec  (  1.7% of XC)
    XC-Potential eval.      ....       0.062 sec  (  0.8% of XC)
Diagonalization             ....       0.071 sec  (  0.4%)
Density matrix formation    ....       0.005 sec  (  0.0%)
Population analysis         ....       0.018 sec  (  0.1%)
Initial guess               ....       0.092 sec  (  0.5%)
Orbital Transformation      ....       0.000 sec  (  0.0%)
Orbital Orthonormalization  ....       0.000 sec  (  0.0%)
DIIS solution               ....       0.052 sec  (  0.3%)
SOSCF solution              ....       0.107 sec  (  0.6%)
Grid generation             ....       0.347 sec  (  2.0%)


-------------------------------------------------------------------------------
                          DFT DISPERSION CORRECTION                            
                                                                               
                              DFTD3 V3.1  Rev 1                                
                              USING zero damping                               
-------------------------------------------------------------------------------
The omegaB97X-D3 functional is recognized. Fit by Chai et al.
Active option DFTDOPT                   ...         3   

molecular C6(AA) [au] = 835.008392 


            DFT-D V3
 parameters
 s6 scaling factor         :     1.0000 
 rs6 scaling factor        :     1.2810 
 s8 scaling factor         :     1.0000 
 rs8 scaling factor        :     1.0940 
 Damping factor alpha6     :    14.0000 
 Damping factor alpha8     :    16.0000 
 ad hoc parameters k1-k3   :    16.0000     1.3333    -4.0000 

 Edisp/kcal,au: -0.794048258837  -0.001265396312 
 E6   /kcal   :  -0.376354534 
 E8   /kcal   :  -0.417693725 
 % E8         :  52.603065355 

-------------------------   ----------------
Dispersion correction           -0.001265396
-------------------------   ----------------


-------------------------   --------------------
FINAL SINGLE POINT ENERGY      -231.465849255557
-------------------------   --------------------


                            ***************************************
                            *     ORCA property calculations      *
                            ***************************************

                                    ---------------------
                                    Active property flags
                                    ---------------------
   (+) Dipole Moment


------------------------------------------------------------------------------
                       ORCA ELECTRIC PROPERTIES CALCULATION
------------------------------------------------------------------------------

Dipole Moment Calculation                       ... on
Quadrupole Moment Calculation                   ... off
Polarizability Calculation                      ... off
GBWName                                         ... 13-38_DFT_AB.gbw
Electron density file                           ... 13-38_DFT_AB.scfp.tmp
The origin for moment calculation is the CENTER OF MASS  = ( 7.028786, -5.409142 -2.266217)

-------------
DIPOLE MOMENT
-------------
                                X             Y             Z
Electronic contribution:      0.00505       1.06229       1.05781
Nuclear contribution   :      0.59857      -1.99283      -1.51235
                        -----------------------------------------
Total Dipole Moment    :      0.60362      -0.93054      -0.45454
                        -----------------------------------------
Magnitude (a.u.)       :      1.19869
Magnitude (Debye)      :      3.04684



--------------------
Rotational spectrum 
--------------------
 
Rotational constants in cm-1:     0.518932     0.043005     0.041178 
Rotational constants in MHz : 15557.198917  1289.268061  1234.491811 

 Dipole components along the rotational axes: 
x,y,z [a.u.] :    -1.034132    -0.400131    -0.455338 
x,y,z [Debye]:    -2.628554    -1.017053    -1.157376 

 
------------------------------------------------------------------------------
                      ORCA CHELPG CHARGES GENERATION
------------------------------------------------------------------------------

GBW file                           ... 13-38_DFT_AB.gbw

Reading the GBW file               ... done

Grid spacing                       ...     0.300000
Point Cut-Off                      ...     2.800000
Van-der-Waals Radii                ...        COSMO
Total charge                       ...            0


Number of points X direction       ...           37
Number of points Y direction       ...           35
Number of points Z direction       ...           26
Maximum number of possible points  ...        33670
Final number of points             ...        10340


CHELPG Charges            
--------------------------------
  0   C   :      -0.180712
  1   O   :      -0.523218
  2   H   :       0.370061
  3   H   :       0.121727
  4   H   :       0.088968
  5   H   :       0.137404
  6   C   :       0.020813
  7   O   :      -0.595189
  8   H   :       0.406839
  9   H   :       0.071826
 10   H   :       0.029774
 11   H   :       0.051708
--------------------------------
Total charge:     0.000000
--------------------------------

CHELPG charges calculated...

Timings for individual parts in CHELPG calculation:
Grid generation                 ...        0.002 sec (=   0.000 min)
Potential calculation           ...        2.142 sec (=   0.036 min)
Fit to the potential            ...        0.014 sec (=   0.000 min)
------------------------------------------------------------------------------


Timings for individual modules:

Sum of individual times         ...       24.464 sec (=   0.408 min)
GTO integral calculation        ...        4.319 sec (=   0.072 min)  17.7 %
SCF iterations                  ...       17.800 sec (=   0.297 min)  72.8 %
CHELPG charge generation        ...        2.345 sec (=   0.039 min)   9.6 %


                 $$$$$$$$$$$$$$$$  JOB NUMBER  2 $$$$$$$$$$$$$$


                       ****************************
                       * Single Point Calculation *
                       ****************************

---------------------------------
CARTESIAN COORDINATES (ANGSTROEM)
---------------------------------
  C      2.238468   -1.442492   -1.376394
  O      1.121689   -1.733540   -0.514272
  H      1.431541   -2.499082   -0.058163
  H      3.190386   -1.760322   -0.835746
  H      2.025457   -1.974779   -2.354060
  H      2.293692   -0.377440   -1.575006
  C      5.160119   -4.518508   -1.480591
  O      6.307349   -3.679778   -1.437952
  H      6.918061   -4.117089   -2.025001
  H      4.300942   -3.910907   -1.216338
  H      4.971459   -5.059759   -2.422785
  H      5.262418   -5.328838   -0.725788

----------------------------
CARTESIAN COORDINATES (A.U.)
----------------------------
  NO LB      ZA    FRAG     MASS         X           Y           Z
   0 C     6.0000    0    12.011    4.230091   -2.725915   -2.601008
   1 O     8.0000    0    15.999    2.119685   -3.275916   -0.971833
   2 H     1.0000    0     1.008    2.705220   -4.722581   -0.109912
   3 H     1.0000    0     1.008    6.028956   -3.326526   -1.579331
   4 H     1.0000    0     1.008    3.827559   -3.731791   -4.448529
   5 H     1.0000    0     1.008    4.334450   -0.713258   -2.976330
   6 C     0.0000    0     0.000    9.751212   -8.538743   -2.797912
   7 O     0.0000    0     0.000   11.919162   -6.953773   -2.717335
   8 H     0.0000    0     0.000   13.073241   -7.780171   -3.826697
   9 H     0.0000    0     0.000    8.127602   -7.390543   -2.298546
  10 H     0.0000    0     0.000    9.394696   -9.561559   -4.578400
  11 H     0.0000    0     0.000    9.944529  -10.070044   -1.371541

--------------------------------
INTERNAL COORDINATES (ANGSTROEM)
--------------------------------
 C      0   0   0     0.000000000000     0.00000000     0.00000000
 O      1   0   0     1.440541084464     0.00000000     0.00000000
 H      2   1   0     0.943450176506   101.45862255     0.00000000
 H      1   2   3     1.139940370163   107.89097675   327.98322947
 H      1   2   3     1.133372817764   106.00128571    92.61039326
 H      1   2   3     1.084818961589   110.32801477   209.55824628
 C      4   1   2     3.450110603431   127.66202970   105.80910524
 O      7   4   1     1.421767481032    89.05229415   132.39421011
 H      8   7   4     0.953329211797   103.16962911   209.02170353
 H      7   4   1     1.084985594623    19.03526608   298.77858210
 H      7   4   1     1.102848481994   117.02399051    12.37106240
 H      7   4   1     1.112127404172   120.54170553   244.70041739

---------------------------
INTERNAL COORDINATES (A.U.)
---------------------------
 C      0   0   0     0.000000000000     0.00000000     0.00000000
 O      1   0   0     2.722228134299     0.00000000     0.00000000
 H      2   1   0     1.782862454596   101.45862255     0.00000000
 H      1   2   3     2.154175108609   107.89097675   327.98322947
 H      1   2   3     2.141764233204   106.00128571    92.61039326
 H      1   2   3     2.050010742289   110.32801477   209.55824628
 C      4   1   2     6.519764172223   127.66202970   105.80910524
 O      7   4   1     2.686751165266    89.05229415   132.39421011
 H      8   7   4     1.801531125764   103.16962911   209.02170353
 H      7   4   1     2.050325633087    19.03526608   298.77858210
 H      7   4   1     2.084081598180   117.02399051    12.37106240
 H      7   4   1     2.101616219914   120.54170553   244.70041739

---------------------
BASIS SET INFORMATION
---------------------
There are 3 groups of distinct atoms

 Group   1 Type C   : 11s6p2d1f contracted to 5s3p2d1f pattern {62111/411/11/1}
 Group   2 Type O   : 11s6p2d1f contracted to 5s3p2d1f pattern {62111/411/11/1}
 Group   3 Type H   : 5s1p contracted to 3s1p pattern {311/1}

Atom   0C    basis set group =>   1
Atom   1O    basis set group =>   2
Atom   2H    basis set group =>   3
Atom   3H    basis set group =>   3
Atom   4H    basis set group =>   3
Atom   5H    basis set group =>   3
Atom   6C    basis set group =>   1
Atom   7O    basis set group =>   2
Atom   8H    basis set group =>   3
Atom   9H    basis set group =>   3
Atom  10H    basis set group =>   3
Atom  11H    basis set group =>   3


           ************************************************************
           *        Program running with 8 parallel MPI-processes     *
           *              working on a common directory               *
           ************************************************************
------------------------------------------------------------------------------
                           ORCA GTO INTEGRAL CALCULATION
------------------------------------------------------------------------------

                         BASIS SET STATISTICS AND STARTUP INFO

 # of primitive gaussian shells          ...  128
 # of primitive gaussian functions       ...  248
 # of contracted shells                  ...   76
 # of contracted basis functions         ...  172
 Highest angular momentum                ...    3
 Maximum contraction depth               ...    6
 Integral package used                   ... LIBINT
 Integral threshhold            Thresh   ...  2.500e-11
 Primitive cut-off              TCut     ...  2.500e-12


------------------------------ INTEGRAL EVALUATION ----------------------------


 * One electron integrals 
 Pre-screening matrix                    ... done
 Shell pair data                         ... done (   0.001 sec)



           ************************************************************
           *        Program running with 8 parallel MPI-processes     *
           *              working on a common directory               *
           ************************************************************
-------------------------------------------------------------------------------
                                 ORCA SCF
-------------------------------------------------------------------------------

------------
SCF SETTINGS
------------
Hamiltonian:
 Density Functional     Method          .... DFT(GTOs)
 Exchange Functional    Exchange        .... WB97X-D3
 Correlation Functional Correlation     .... WB97X-D3
 Gradients option       PostSCFGGA      .... off
 Hybrid DFT is turned on
   Fraction HF Exchange ScalHFX         ....  0.195728
   Scaling of DF-GGA-X  ScalDFX         ....  0.000000
   Scaling of DF-GGA-C  ScalDFC         ....  1.000000
   Scaling of DF-LDA-C  ScalLDAC        ....  1.000000
   Perturbative correction              ....  0.000000
   Density functional embedding theory  .... OFF
 Long-range corrected/Screened/Range-Separated Hybrid DFT is turned on
   Amount of maximum screened exact exchange              ....  0.804272
   Range separation parameter mu (erf(mu*r12)/r12)        ....  0.250000


General Settings:
 Integral files         IntName         .... 13-38_DFT_A
 Hartree-Fock type      HFTyp           .... RHF
 Total Charge           Charge          ....    0
 Multiplicity           Mult            ....    1
 Number of Electrons    NEL             ....   18
 Basis Dimension        Dim             ....  172
 Nuclear Repulsion      ENuc            ....     39.9645132337 Eh

Convergence Acceleration:
 DIIS                   CNVDIIS         .... on
   Start iteration      DIISMaxIt       ....    12
   Startup error        DIISStart       ....  0.200000
   # of expansion vecs  DIISMaxEq       ....     5
   Bias factor          DIISBfac        ....   1.050
   Max. coefficient     DIISMaxC        ....  10.000
 Newton-Raphson         CNVNR           .... off
 SOSCF                  CNVSOSCF        .... on
   Start iteration      SOSCFMaxIt      ....   150
   Startup grad/error   SOSCFStart      ....  0.003300
 Level Shifting         CNVShift        .... on
   Level shift para.    LevelShift      ....    0.2500
   Turn off err/grad.   ShiftErr        ....    0.0010
 Zerner damping         CNVZerner       .... off
 Static damping         CNVDamp         .... on
   Fraction old density DampFac         ....    0.7000
   Max. Damping (<1)    DampMax         ....    0.9800
   Min. Damping (>=0)   DampMin         ....    0.0000
   Turn off err/grad.   DampErr         ....    0.1000
 Fernandez-Rico         CNVRico         .... off

SCF Procedure:
 Maximum # iterations   MaxIter         ....  1000
 SCF integral mode      SCFMode         .... Direct
   Integral package                     .... LIBINT
 Reset frequency        DirectResetFreq ....    20
 Integral Threshold     Thresh          ....  2.500e-11 Eh
 Primitive CutOff       TCut            ....  2.500e-12 Eh

Convergence Tolerance:
 Convergence Check Mode ConvCheckMode   .... Total+1el-Energy
 Convergence forced     ConvForced      .... 0
 Energy Change          TolE            ....  1.000e-08 Eh
 1-El. energy change                    ....  1.000e-05 Eh
 Orbital Gradient       TolG            ....  1.000e-05
 Orbital Rotation angle TolX            ....  1.000e-05
 DIIS Error             TolErr          ....  5.000e-07


Diagonalization of the overlap matrix:
Smallest eigenvalue                        ... 1.171e-03
Time for diagonalization                   ...    0.004 sec
Threshold for overlap eigenvalues          ... 1.000e-08
Number of eigenvalues below threshold      ... 0
Time for construction of square roots      ...    0.014 sec
Total time needed                          ...    0.018 sec

-------------------
DFT GRID GENERATION
-------------------

General Integration Accuracy     IntAcc      ...  4.340
Radial Grid Type                 RadialGrid  ... Gauss-Chebyshev
Angular Grid (max. acc.)         AngularGrid ... Lebedev-110
Angular grid pruning method      GridPruning ... 3 (G Style)
Weight generation scheme         WeightScheme... Becke
Basis function cutoff            BFCut       ...    1.0000e-11
Integration weight cutoff        WCut        ...    1.0000e-14
Grids for H and He will be reduced by one unit

# of grid points (after initial pruning)     ...  13096 (   0.0 sec)
# of grid points (after weights+screening)   ...  12554 (   0.0 sec)
nearest neighbour list constructed           ...    0.0 sec
Grid point re-assignment to atoms done       ...    0.0 sec
Grid point division into batches done        ...    0.0 sec
Reduced shell lists constructed in    0.0 sec

Total number of grid points                  ...    12554
Total number of batches                      ...      202
Average number of points per batch           ...       62
Average number of grid points per atom       ...     1046
Average number of shells per batch           ...    45.26 (59.55%)
Average number of basis functions per batch  ...    98.22 (57.11%)
Average number of large shells per batch     ...    37.11 (82.00%)
Average number of large basis fcns per batch ...    82.81 (84.31%)
Maximum spatial batch extension              ...  14.03, 15.94, 13.78 au
Average spatial batch extension              ...   0.39,  0.40,  0.38 au

Time for grid setup =    0.065 sec

------------------------------
INITIAL GUESS: MODEL POTENTIAL
------------------------------
Loading Hartree-Fock densities                     ... done
Calculating cut-offs                               ... done
Setting up the integral package                    ... done
Initializing the effective Hamiltonian             ... done
Starting the Coulomb interaction                   ... done (   0.0 sec)
Reading the grid                                   ... done
Mapping shells                                     ... done
Starting the XC term evaluation                    ... done (   0.0 sec)
  promolecular density results
     # of electrons  =     17.996228164
     EX              =    -14.414876026
     EC              =     -0.573646245
     EX+EC           =    -14.988522271
Transforming the Hamiltonian                       ... done (   0.0 sec)
Diagonalizing the Hamiltonian                      ... done (   0.0 sec)
Back transforming the eigenvectors                 ... done (   0.0 sec)
Now organizing SCF variables                       ... done
                      ------------------
                      INITIAL GUESS DONE (   0.2 sec)
                      ------------------
--------------
SCF ITERATIONS
--------------
ITER       Energy         Delta-E        Max-DP      RMS-DP      [F,P]     Damp
               ***  Starting incremental Fock matrix formation  ***
  0   -115.6460568931   0.000000000000 0.03667214  0.00074519  0.2520502 0.7000
  1   -115.6823754948  -0.036318601765 0.02175554  0.00052317  0.1248209 0.7000
                               ***Turning on DIIS***
  2   -115.6988126378  -0.016437142958 0.03083748  0.00093061  0.0475452 0.0000
  3   -115.7254915193  -0.026678881546 0.01684788  0.00034758  0.0610051 0.0000
  4   -115.7299558425  -0.004464323209 0.00418571  0.00007050  0.0062563 0.0000
                      *** Initiating the SOSCF procedure ***
                           *** Shutting down DIIS ***
                      *** Re-Reading the Fockian *** 
                      *** Removing any level shift *** 
ITER      Energy       Delta-E        Grad      Rot      Max-DP    RMS-DP
  5   -115.73005046  -0.0000946191  0.000438  0.000438  0.000657  0.000024
               *** Restarting incremental Fock matrix formation ***
  6   -115.73005892  -0.0000084578  0.000165  0.000213  0.000437  0.000014
  7   -115.73005979  -0.0000008754  0.000043  0.000112  0.000202  0.000006
  8   -115.73005988  -0.0000000817  0.000012  0.000014  0.000018  0.000001
  9   -115.73005988  -0.0000000018  0.000010  0.000007  0.000009  0.000000
                  ***Gradient check signals convergence***
              ***Rediagonalizing the Fockian in SOSCF/NRSCF***

               *****************************************************
               *                     SUCCESS                       *
               *           SCF CONVERGED AFTER  10 CYCLES          *
               *****************************************************

Setting up the final grid:

General Integration Accuracy     IntAcc      ...  4.670
Radial Grid Type                 RadialGrid  ... Gauss-Chebyshev
Angular Grid (max. acc.)         AngularGrid ... Lebedev-302
Angular grid pruning method      GridPruning ... 3 (G Style)
Weight generation scheme         WeightScheme... Becke
Basis function cutoff            BFCut       ...    1.0000e-11
Integration weight cutoff        WCut        ...    1.0000e-14
Grids for H and He will be reduced by one unit

# of grid points (after initial pruning)     ...  52000 (   0.0 sec)
# of grid points (after weights+screening)   ...  49397 (   0.0 sec)
nearest neighbour list constructed           ...    0.0 sec
Grid point re-assignment to atoms done       ...    0.0 sec
Grid point division into batches done        ...    0.2 sec
Reduced shell lists constructed in    0.2 sec

Total number of grid points                  ...    49397
Total number of batches                      ...      778
Average number of points per batch           ...       63
Average number of grid points per atom       ...     4116
Average number of shells per batch           ...    44.05 (57.96%)
Average number of basis functions per batch  ...    95.59 (55.57%)
Average number of large shells per batch     ...    35.72 (81.08%)
Average number of large basis fcns per batch ...    79.64 (83.31%)
Maximum spatial batch extension              ...  15.93, 16.05, 17.31 au
Average spatial batch extension              ...   0.27,  0.29,  0.28 au

Final grid set up in    0.3 sec
Final integration                            ... done (   0.1 sec)
Change in XC energy                          ...    -0.000326550
Integrated number of electrons               ...    17.999886379
Previous integrated no of electrons          ...    17.999032988

----------------
TOTAL SCF ENERGY
----------------

Total Energy       :         -115.73038643 Eh           -3149.18392 eV

Components:
Nuclear Repulsion  :           39.96451323 Eh            1087.48969 eV
Electronic Energy  :         -155.69489966 Eh           -4236.67361 eV
One Electron Energy:         -236.36918308 Eh           -6431.93246 eV
Two Electron Energy:           80.67428342 Eh            2195.25886 eV

Virial components:
Potential Energy   :         -230.89664043 Eh           -6283.01701 eV
Kinetic Energy     :          115.16625400 Eh            3133.83309 eV
Virial Ratio       :            2.00489842


DFT components:
N(Alpha)           :        8.999943189570 electrons
N(Beta)            :        8.999943189570 electrons
N(Total)           :       17.999886379140 electrons
E(XC)              :      -10.633208949053 Eh       
DFET-embed. en.    :        0.000000000000 Eh       

---------------
SCF CONVERGENCE
---------------

  Last Energy change         ...   -1.2722e-09  Tolerance :   1.0000e-08
  Last MAX-Density change    ...    1.6699e-06  Tolerance :   1.0000e-07
  Last RMS-Density change    ...    6.1959e-08  Tolerance :   5.0000e-09
  Last Orbital Gradient      ...    1.2862e-06  Tolerance :   1.0000e-05
  Last Orbital Rotation      ...    1.2292e-06  Tolerance :   1.0000e-05

             **** THE GBW FILE WAS UPDATED (13-38_DFT_A.gbw) ****
             **** DENSITY FILE WAS UPDATED (13-38_DFT_A.scfp.tmp) ****
             **** ENERGY FILE WAS UPDATED (13-38_DFT_A.en.tmp) ****
----------------
ORBITAL ENERGIES
----------------

  NO   OCC          E(Eh)            E(eV) 
   0   2.0000     -19.227000      -523.1933 
   1   2.0000     -10.323810      -280.9252 
   2   2.0000      -1.135155       -30.8891 
   3   2.0000      -0.787916       -21.4403 
   4   2.0000      -0.601333       -16.3631 
   5   2.0000      -0.540799       -14.7159 
   6   2.0000      -0.525155       -14.2902 
   7   2.0000      -0.437985       -11.9182 
   8   2.0000      -0.372663       -10.1407 
   9   0.0000       0.078570         2.1380 
  10   0.0000       0.114838         3.1249 
  11   0.0000       0.152724         4.1558 
  12   0.0000       0.165518         4.5040 
  13   0.0000       0.177243         4.8230 
  14   0.0000       0.197643         5.3781 
  15   0.0000       0.202988         5.5236 
  16   0.0000       0.222564         6.0563 
  17   0.0000       0.235443         6.4067 
  18   0.0000       0.281431         7.6581 
  19   0.0000       0.308254         8.3880 
  20   0.0000       0.321478         8.7479 
  21   0.0000       0.337108         9.1732 
  22   0.0000       0.340824         9.2743 
  23   0.0000       0.394001        10.7213 
  24   0.0000       0.423868        11.5340 
  25   0.0000       0.445372        12.1192 
  26   0.0000       0.471480        12.8296 
  27   0.0000       0.494649        13.4601 
  28   0.0000       0.508377        13.8336 
  29   0.0000       0.533076        14.5057 
  30   0.0000       0.544639        14.8204 
  31   0.0000       0.568297        15.4641 
  32   0.0000       0.588323        16.0091 
  33   0.0000       0.601181        16.3590 
  34   0.0000       0.625080        17.0093 
  35   0.0000       0.636439        17.3184 
  36   0.0000       0.678636        18.4666 
  37   0.0000       0.697602        18.9827 
  38   0.0000       0.761940        20.7334 
  39   0.0000       0.789293        21.4778 
  40   0.0000       0.796117        21.6634 
  41   0.0000       0.867839        23.6151 
  42   0.0000       0.882728        24.0202 
  43   0.0000       0.922264        25.0961 
  44   0.0000       1.002874        27.2896 
  45   0.0000       1.031039        28.0560 
  46   0.0000       1.049066        28.5465 
  47   0.0000       1.115252        30.3475 
  48   0.0000       1.154765        31.4228 
  49   0.0000       1.159541        31.5527 
  50   0.0000       1.184201        32.2237 
  51   0.0000       1.202494        32.7215 
  52   0.0000       1.230390        33.4806 
  53   0.0000       1.355743        36.8916 
  54   0.0000       1.376512        37.4568 
  55   0.0000       1.398500        38.0551 
  56   0.0000       1.451795        39.5053 
  57   0.0000       1.495221        40.6870 
  58   0.0000       1.515220        41.2312 
  59   0.0000       1.554283        42.2942 
  60   0.0000       1.608670        43.7741 
  61   0.0000       1.619983        44.0820 
  62   0.0000       1.657401        45.1002 
  63   0.0000       1.676415        45.6176 
  64   0.0000       1.693637        46.0862 
  65   0.0000       1.765036        48.0291 
  66   0.0000       1.802621        49.0518 
  67   0.0000       1.922927        52.3255 
  68   0.0000       1.935509        52.6679 
  69   0.0000       1.963481        53.4290 
  70   0.0000       2.039808        55.5060 
  71   0.0000       2.050683        55.8019 
  72   0.0000       2.086223        56.7690 
  73   0.0000       2.089002        56.8446 
  74   0.0000       2.149137        58.4810 
  75   0.0000       2.188026        59.5392 
  76   0.0000       2.201078        59.8944 
  77   0.0000       2.208635        60.1000 
  78   0.0000       2.242196        61.0133 
  79   0.0000       2.295078        62.4523 
  80   0.0000       2.306990        62.7764 
  81   0.0000       2.336925        63.5910 
  82   0.0000       2.394421        65.1555 
  83   0.0000       2.434056        66.2340 
  84   0.0000       2.511159        68.3321 
  85   0.0000       2.517408        68.5022 
  86   0.0000       2.548967        69.3609 
  87   0.0000       2.565630        69.8144 
  88   0.0000       2.618104        71.2422 
  89   0.0000       2.635949        71.7278 
  90   0.0000       2.660104        72.3851 
  91   0.0000       2.677015        72.8453 
  92   0.0000       2.797323        76.1190 
  93   0.0000       2.813047        76.5469 
  94   0.0000       2.863652        77.9239 
  95   0.0000       2.925940        79.6189 
  96   0.0000       2.960717        80.5652 
  97   0.0000       2.981606        81.1336 
  98   0.0000       3.034428        82.5710 
  99   0.0000       3.075455        83.6874 
 100   0.0000       3.097836        84.2964 
 101   0.0000       3.183714        86.6333 
 102   0.0000       3.185516        86.6823 
 103   0.0000       3.205933        87.2379 
 104   0.0000       3.261363        88.7462 
 105   0.0000       3.324006        90.4508 
 106   0.0000       3.373584        91.7999 
 107   0.0000       3.391369        92.2838 
 108   0.0000       3.414214        92.9055 
 109   0.0000       3.441326        93.6433 
 110   0.0000       3.456487        94.0558 
 111   0.0000       3.583883        97.5224 
 112   0.0000       3.600155        97.9652 
 113   0.0000       3.616360        98.4062 
 114   0.0000       3.633995        98.8860 
 115   0.0000       3.641858        99.1000 
 116   0.0000       3.770896       102.6113 
 117   0.0000       4.021629       109.4341 
 118   0.0000       4.066422       110.6530 
 119   0.0000       4.140954       112.6811 
 120   0.0000       4.153640       113.0263 
 121   0.0000       4.221713       114.8787 
 122   0.0000       4.264879       116.0533 
 123   0.0000       4.284739       116.5937 
 124   0.0000       4.351530       118.4112 
 125   0.0000       4.420827       120.2968 
 126   0.0000       4.514754       122.8527 
 127   0.0000       4.544544       123.6633 
 128   0.0000       4.554673       123.9390 
 129   0.0000       4.565875       124.2438 
 130   0.0000       4.615484       125.5937 
 131   0.0000       5.033181       136.9598 
 132   0.0000       5.087691       138.4431 
 133   0.0000       5.110927       139.0754 
 134   0.0000       5.340961       145.3349 
 135   0.0000       5.353910       145.6873 
 136   0.0000       5.430039       147.7589 
 137   0.0000       5.456120       148.4686 
 138   0.0000       5.545496       150.9006 
 139   0.0000       5.715462       155.5256 
 140   0.0000       5.745112       156.3324 
 141   0.0000       5.785889       157.4421 
 142   0.0000       5.934300       161.4805 
 143   0.0000       5.969892       162.4490 
 144   0.0000       5.991987       163.0502 
 145   0.0000       6.377043       173.5282 
 146   0.0000       6.540881       177.9864 
 147   0.0000       6.613664       179.9670 
 148   0.0000       6.739897       183.4019 
 149   0.0000       6.785500       184.6429 
 150   0.0000       6.815384       185.4560 
 151   0.0000       6.828463       185.8119 
 152   0.0000       7.016222       190.9211 
 153   0.0000       7.052652       191.9124 
 154   0.0000       7.213944       196.3014 
 155   0.0000       7.220979       196.4928 
 156   0.0000       7.403060       201.4475 
 157   0.0000       8.120607       220.9730 
 158   0.0000       8.864542       241.2164 
 159   0.0000       9.345321       254.2991 
 160   0.0000       9.522104       259.1096 
 161   0.0000       9.548974       259.8408 
 162   0.0000       9.778264       266.0801 
 163   0.0000       9.864972       268.4395 
 164   0.0000       9.931698       270.2552 
 165   0.0000      10.057715       273.6843 
 166   0.0000      11.135757       303.0194 
[...]
  82   0.0000       2.420152        65.8557 
  83   0.0000       2.478242        67.4364 
  84   0.0000       2.494476        67.8781 
  85   0.0000       2.509576        68.2890 
  86   0.0000       2.583712        70.3064 
  87   0.0000       2.586441        70.3806 
  88   0.0000       2.601917        70.8017 
  89   0.0000       2.615070        71.1597 
  90   0.0000       2.675958        72.8165 
  91   0.0000       2.704130        73.5831 
  92   0.0000       2.820557        76.7513 
  93   0.0000       2.825506        76.8859 
  94   0.0000       2.880149        78.3728 
  95   0.0000       2.912341        79.2488 
  96   0.0000       2.923381        79.5492 
  97   0.0000       2.975109        80.9568 
  98   0.0000       2.998403        81.5907 
  99   0.0000       3.065062        83.4046 
 100   0.0000       3.100303        84.3635 
 101   0.0000       3.140626        85.4608 
 102   0.0000       3.142154        85.5024 
 103   0.0000       3.197515        87.0088 
 104   0.0000       3.295988        89.6884 
 105   0.0000       3.331042        90.6423 
 106   0.0000       3.371142        91.7334 
 107   0.0000       3.413916        92.8974 
 108   0.0000       3.435631        93.4883 
 109   0.0000       3.480313        94.7041 
 110   0.0000       3.527756        95.9951 
 111   0.0000       3.539401        96.3120 
 112   0.0000       3.604330        98.0788 
 113   0.0000       3.645116        99.1887 
 114   0.0000       3.667644        99.8017 
 115   0.0000       3.691304       100.4455 
 116   0.0000       3.708301       100.9080 
 117   0.0000       4.018720       109.3549 
 118   0.0000       4.083124       111.1074 
 119   0.0000       4.184635       113.8697 
 120   0.0000       4.201481       114.3281 
 121   0.0000       4.238754       115.3424 
 122   0.0000       4.261512       115.9616 
 123   0.0000       4.290836       116.7596 
 124   0.0000       4.319400       117.5368 
 125   0.0000       4.427506       120.4786 
 126   0.0000       4.532863       123.3455 
 127   0.0000       4.557129       124.0058 
 128   0.0000       4.563396       124.1763 
 129   0.0000       4.588562       124.8611 
 130   0.0000       4.637801       126.2010 
 131   0.0000       5.015231       136.4714 
 132   0.0000       5.081411       138.2722 
 133   0.0000       5.118816       139.2901 
 134   0.0000       5.349737       145.5738 
 135   0.0000       5.357497       145.7849 
 136   0.0000       5.444803       148.1606 
 137   0.0000       5.452789       148.3779 
 138   0.0000       5.543668       150.8509 
 139   0.0000       5.677466       154.4917 
 140   0.0000       5.756433       156.6405 
 141   0.0000       5.809868       158.0945 
 142   0.0000       5.819825       158.3655 
 143   0.0000       5.957617       162.1150 
 144   0.0000       6.008722       163.5056 
 145   0.0000       6.359589       173.0532 
 146   0.0000       6.526743       177.6017 
 147   0.0000       6.612351       179.9312 
 148   0.0000       6.744763       183.5343 
 149   0.0000       6.779260       184.4730 
 150   0.0000       6.799156       185.0144 
 151   0.0000       6.830078       185.8559 
 152   0.0000       7.012785       190.8276 
 153   0.0000       7.024598       191.1490 
 154   0.0000       7.188143       195.5993 
 155   0.0000       7.206113       196.0883 
 156   0.0000       7.375386       200.6945 
 157   0.0000       8.161566       222.0875 
 158   0.0000       8.863819       241.1968 
 159   0.0000       9.361234       254.7321 
 160   0.0000       9.527594       259.2590 
 161   0.0000       9.556714       260.0514 
 162   0.0000       9.787076       266.3199 
 163   0.0000       9.833792       267.5911 
 164   0.0000       9.913952       269.7723 
 165   0.0000      10.034400       273.0499 
 166   0.0000      11.084264       301.6181 
 167   0.0000      19.100578       519.7532 
 168   0.0000      22.361417       608.4851 
 169   0.0000      43.650235      1187.7833 
 170   0.0000      65.749311      1789.1297 
 171   0.0000     126.418610      3440.0253 

                    ********************************
                    * MULLIKEN POPULATION ANALYSIS *
                    ********************************

-----------------------
MULLIKEN ATOMIC CHARGES
-----------------------
   0 C :   -0.000948
   1 O :    0.000033
   2 H :   -0.000137
   3 H :    0.002819
   4 H :   -0.000543
   5 H :    0.000058
   6 C :   -0.179056
   7 O :   -0.461181
   8 H :    0.311637
   9 H :    0.120058
  10 H :    0.107457
  11 H :    0.099804
Sum of atomic charges:    0.0000000

--------------------------------
MULLIKEN REDUCED ORBITAL CHARGES
--------------------------------
  0 C s       :     0.001018  s :     0.001018
      pz      :     0.000041  p :    -0.000068
      px      :     0.000463
      py      :    -0.000572
      dz2     :     0.000004  d :    -0.000002
      dxz     :     0.000000
      dyz     :    -0.000000
      dx2y2   :     0.000000
      dxy     :    -0.000007
      f0      :    -0.000000  f :     0.000000
      f+1     :     0.000000
      f-1     :    -0.000000
      f+2     :     0.000000
      f-2     :    -0.000000
      f+3     :     0.000000
      f-3     :     0.000000
  1 O s       :    -0.000044  s :    -0.000044
      pz      :     0.000003  p :     0.000011
      px      :    -0.000012
      py      :     0.000021
      dz2     :    -0.000000  d :    -0.000000
      dxz     :    -0.000000
      dyz     :     0.000000
      dx2y2   :     0.000000
      dxy     :     0.000000
      f0      :    -0.000000  f :    -0.000000
      f+1     :     0.000000
      f-1     :     0.000000
      f+2     :    -0.000000
      f-2     :    -0.000000
      f+3     :     0.000000
      f-3     :    -0.000000
  2 H s       :     0.000137  s :     0.000137
      pz      :     0.000000  p :     0.000000
      px      :     0.000000
      py      :    -0.000000
  3 H s       :    -0.002821  s :    -0.002821
      pz      :    -0.000000  p :     0.000002
      px      :     0.000001
      py      :     0.000001
  4 H s       :     0.000543  s :     0.000543
      pz      :     0.000000  p :     0.000000
      px      :    -0.000000
      py      :     0.000000
  5 H s       :    -0.000057  s :    -0.000057
      pz      :    -0.000000  p :    -0.000000
      px      :     0.000000
      py      :    -0.000000
  6 C s       :     3.229857  s :     3.229857
      pz      :     1.065297  p :     2.843924
      px      :     0.837524
      py      :     0.941103
      dz2     :     0.004965  d :     0.097719
      dxz     :     0.020372
      dyz     :     0.020411
      dx2y2   :     0.032251
      dxy     :     0.019719
      f0      :     0.001022  f :     0.007556
      f+1     :     0.000336
      f-1     :     0.001007
      f+2     :     0.000171
      f-2     :     0.001403
      f+3     :     0.002268
      f-3     :     0.001349
  7 O s       :     3.804086  s :     3.804086
      pz      :     1.708336  p :     4.624230
      px      :     1.311789
      py      :     1.604104
      dz2     :     0.003684  d :     0.031261
      dxz     :     0.006176
      dyz     :     0.005757
      dx2y2   :     0.004213
      dxy     :     0.011431
      f0      :     0.000218  f :     0.001605
      f+1     :     0.000253
      f-1     :     0.000149
      f+2     :     0.000083
      f-2     :     0.000447
      f+3     :     0.000168
      f-3     :     0.000285
  8 H s       :     0.639896  s :     0.639896
      pz      :     0.018276  p :     0.048467
      px      :     0.015217
      py      :     0.014974
  9 H s       :     0.859679  s :     0.859679
      pz      :     0.004901  p :     0.020263
      px      :     0.009234
      py      :     0.006128
 10 H s       :     0.873722  s :     0.873722
      pz      :     0.009854  p :     0.018821
      px      :     0.003121
      py      :     0.005846
 11 H s       :     0.880583  s :     0.880583
      pz      :     0.008341  p :     0.019613
      px      :     0.002948
      py      :     0.008324


                     *******************************
                     * LOEWDIN POPULATION ANALYSIS *
                     *******************************

----------------------
LOEWDIN ATOMIC CHARGES
----------------------
   0 C :   -0.002697
   1 O :   -0.000008
   2 H :   -0.000156
   3 H :   -0.002224
   4 H :   -0.000282
   5 H :   -0.000018
   6 C :   -0.385631
   7 O :   -0.075759
   8 H :    0.165893
   9 H :    0.106677
  10 H :    0.097028
  11 H :    0.097176

-------------------------------
LOEWDIN REDUCED ORBITAL CHARGES
-------------------------------
  0 C s       :     0.000291  s :     0.000291
      pz      :     0.000014  p :     0.002340
      px      :     0.000687
      py      :     0.001638
      dz2     :     0.000012  d :     0.000066
      dxz     :     0.000000
      dyz     :     0.000000
      dx2y2   :     0.000009
      dxy     :     0.000044
      f0      :     0.000000  f :     0.000001
      f+1     :     0.000000
      f-1     :     0.000000
      f+2     :     0.000000
      f-2     :     0.000000
      f+3     :     0.000000
      f-3     :     0.000000
  1 O s       :     0.000005  s :     0.000005
      pz      :     0.000000  p :     0.000003
      px      :     0.000001
      py      :     0.000001
      dz2     :     0.000000  d :     0.000000
      dxz     :     0.000000
      dyz     :     0.000000
      dx2y2   :     0.000000
      dxy     :     0.000000
      f0      :     0.000000  f :     0.000000
      f+1     :     0.000000
      f-1     :     0.000000
      f+2     :     0.000000
      f-2     :     0.000000
      f+3     :     0.000000
      f-3     :     0.000000
  2 H s       :     0.000156  s :     0.000156
      pz      :     0.000000  p :     0.000000
      px      :     0.000000
      py      :     0.000000
  3 H s       :     0.002192  s :     0.002192
      pz      :     0.000001  p :     0.000031
      px      :     0.000004
      py      :     0.000026
  4 H s       :     0.000282  s :     0.000282
      pz      :     0.000000  p :     0.000000
      px      :     0.000000
      py      :     0.000000
  5 H s       :     0.000017  s :     0.000017
      pz      :     0.000000  p :     0.000001
      px      :     0.000000
      py      :     0.000001
  6 C s       :     2.866947  s :     2.866947
      pz      :     1.107656  p :     3.055387
      px      :     0.929629
      py      :     1.018102
      dz2     :     0.040537  d :     0.408200
      dxz     :     0.064918
      dyz     :     0.095773
      dx2y2   :     0.097570
      dxy     :     0.109402
      f0      :     0.006023  f :     0.055097
      f+1     :     0.005543
      f-1     :     0.004398
      f+2     :     0.005278
      f-2     :     0.008358
      f+3     :     0.014606
      f-3     :     0.010891
  7 O s       :     3.378224  s :     3.378224
      pz      :     1.653324  p :     4.622632
      px      :     1.349059
      py      :     1.620250
      dz2     :     0.006051  d :     0.070193
      dxz     :     0.017393
      dyz     :     0.008942
      dx2y2   :     0.014121
      dxy     :     0.023686
      f0      :     0.000465  f :     0.004710
      f+1     :     0.000493
      f-1     :     0.000354
      f+2     :     0.000091
      f-2     :     0.001424
      f+3     :     0.000990
      f-3     :     0.000892
  8 H s       :     0.672781  s :     0.672781
      pz      :     0.061443  p :     0.161326
      px      :     0.047233
      py      :     0.052650
  9 H s       :     0.832314  s :     0.832314
      pz      :     0.015163  p :     0.061009
      px      :     0.026262
      py      :     0.019584
 10 H s       :     0.843408  s :     0.843408
      pz      :     0.030580  p :     0.059563
      px      :     0.011095
      py      :     0.017888
 11 H s       :     0.845222  s :     0.845222
      pz      :     0.024153  p :     0.057601
      px      :     0.009629
      py      :     0.023819


                      *****************************
                      * MAYER POPULATION ANALYSIS *
                      *****************************

  NA   - Mulliken gross atomic population
  ZA   - Total nuclear charge
  QA   - Mulliken gross atomic charge
  VA   - Mayer's total valence
  BVA  - Mayer's bonded valence
  FA   - Mayer's free valence

  ATOM       NA         ZA         QA         VA         BVA        FA
  0 C      0.0009     0.0000    -0.0009     0.0019     0.0019    -0.0000
  1 O     -0.0000     0.0000     0.0000    -0.0001    -0.0001     0.0000
  2 H      0.0001     0.0000    -0.0001     0.0003     0.0003    -0.0000
  3 H     -0.0028     0.0000     0.0028    -0.0056    -0.0056     0.0000
  4 H      0.0005     0.0000    -0.0005     0.0011     0.0011    -0.0000
  5 H     -0.0001     0.0000     0.0001    -0.0001    -0.0001    -0.0000
  6 C      6.1791     6.0000    -0.1791     3.9507     3.9507     0.0000
  7 O      8.4612     8.0000    -0.4612     1.8996     1.8996    -0.0000
  8 H      0.6884     1.0000     0.3116     0.9160     0.9160     0.0000
  9 H      0.8799     1.0000     0.1201     0.9473     0.9473    -0.0000
 10 H      0.8925     1.0000     0.1075     0.9573     0.9573     0.0000
 11 H      0.9002     1.0000     0.0998     0.9573     0.9573     0.0000

  Mayer bond orders larger than 0.1
B(  6-C ,  7-O ) :   1.0131 B(  6-C ,  9-H ) :   0.9759 B(  6-C , 10-H ) :   0.9741 
B(  6-C , 11-H ) :   0.9793 B(  7-O ,  8-H ) :   0.9052 

-------
TIMINGS
-------

Total SCF time: 0 days 0 hours 0 min 15 sec 

Total time                  ....      15.698 sec
Sum of individual times     ....      15.049 sec  ( 95.9%)

Fock matrix formation       ....      14.105 sec  ( 89.9%)
  XC integration            ....       6.951 sec  ( 49.3% of F)
    Basis function eval.    ....       0.056 sec  (  0.8% of XC)
    Density eval.           ....       0.078 sec  (  1.1% of XC)
    XC-Functional eval.     ....       0.107 sec  (  1.5% of XC)
    XC-Potential eval.      ....       0.056 sec  (  0.8% of XC)
Diagonalization             ....       0.198 sec  (  1.3%)
Density matrix formation    ....       0.004 sec  (  0.0%)
Population analysis         ....       0.157 sec  (  1.0%)
Initial guess               ....       0.108 sec  (  0.7%)
Orbital Transformation      ....       0.000 sec  (  0.0%)
Orbital Orthonormalization  ....       0.000 sec  (  0.0%)
DIIS solution               ....       0.101 sec  (  0.6%)
SOSCF solution              ....       0.036 sec  (  0.2%)
Grid generation             ....       0.339 sec  (  2.2%)


-------------------------------------------------------------------------------
                          DFT DISPERSION CORRECTION                            
                                                                               
                              DFTD3 V3.1  Rev 1                                
                              USING zero damping                               
-------------------------------------------------------------------------------
The omegaB97X-D3 functional is recognized. Fit by Chai et al.
Active option DFTDOPT                   ...         3   

molecular C6(AA) [au] = 208.703283 


            DFT-D V3
 parameters
 s6 scaling factor         :     1.0000 
 rs6 scaling factor        :     1.2810 
 s8 scaling factor         :     1.0000 
 rs8 scaling factor        :     1.0940 
 Damping factor alpha6     :    14.0000 
 Damping factor alpha8     :    16.0000 
 ad hoc parameters k1-k3   :    16.0000     1.3333    -4.0000 

 Edisp/kcal,au: -0.151714851659  -0.000241772980 
 E6   /kcal   :  -0.027863305 
 E8   /kcal   :  -0.123851547 
 % E8         :  81.634424938 

-------------------------   ----------------
Dispersion correction           -0.000241773
-------------------------   ----------------


-------------------------   --------------------
FINAL SINGLE POINT ENERGY      -115.734549700757
-------------------------   --------------------


                            ***************************************
                            *     ORCA property calculations      *
                            ***************************************

                                    ---------------------
                                    Active property flags
                                    ---------------------
   (+) Dipole Moment


------------------------------------------------------------------------------
                       ORCA ELECTRIC PROPERTIES CALCULATION
------------------------------------------------------------------------------

Dipole Moment Calculation                       ... on
Quadrupole Moment Calculation                   ... off
Polarizability Calculation                      ... off
GBWName                                         ... 13-38_DFT_B.gbw
Electron density file                           ... 13-38_DFT_B.scfp.tmp
The origin for moment calculation is the CENTER OF MASS  = (10.881995, -7.767711 -2.785474)

-------------
DIPOLE MOMENT
-------------
                                X             Y             Z
Electronic contribution:      1.41409       1.25117       0.06554
Nuclear contribution   :     -1.47527      -1.84616      -0.46281
                        -----------------------------------------
Total Dipole Moment    :     -0.06117      -0.59499      -0.39727
                        -----------------------------------------
Magnitude (a.u.)       :      0.71804
Magnitude (Debye)      :      1.82511



--------------------
Rotational spectrum 
--------------------
 
Rotational constants in cm-1:     4.248242     0.828751     0.794189 
Rotational constants in MHz : 127359.079017 24845.333912 23809.194847 

 Dipole components along the rotational axes: 
x,y,z [a.u.] :    -0.384893    -0.604808    -0.040524 
x,y,z [Debye]:    -0.978321    -1.537300    -0.103004 

 
------------------------------------------------------------------------------
                      ORCA CHELPG CHARGES GENERATION
------------------------------------------------------------------------------

GBW file                           ... 13-38_DFT_B.gbw

Reading the GBW file               ... done

Grid spacing                       ...     0.300000
Point Cut-Off                      ...     2.800000
Van-der-Waals Radii                ...        COSMO
Total charge                       ...            0


Number of points X direction       ...           37
Number of points Y direction       ...           35
Number of points Z direction       ...           26
Maximum number of possible points  ...        33670
Final number of points             ...         5948


CHELPG Charges            
--------------------------------
  0   C   :       0.013167
  1   O   :      -0.023617
  2   H   :       0.004398
  3   H   :       0.003730
  4   H   :      -0.014987
  5   H   :       0.009520
  6   C   :       0.031074
  7   O   :      -0.575741
  8   H   :       0.395373
  9   H   :       0.091221
 10   H   :       0.030081
 11   H   :       0.035781
--------------------------------
Total charge:     0.000000
--------------------------------

CHELPG charges calculated...

Timings for individual parts in CHELPG calculation:
Grid generation                 ...        0.001 sec (=   0.000 min)
Potential calculation           ...        1.150 sec (=   0.019 min)
Fit to the potential            ...        0.002 sec (=   0.000 min)
------------------------------------------------------------------------------


Timings for individual modules:

Sum of individual times         ...       17.884 sec (=   0.298 min)
GTO integral calculation        ...        0.636 sec (=   0.011 min)   3.6 %
SCF iterations                  ...       16.025 sec (=   0.267 min)  89.6 %
CHELPG charge generation        ...        1.223 sec (=   0.020 min)   6.8 %



                             ****ORCA TERMINATED NORMALLY****
TOTAL RUN TIME: 0 days 0 hours 1 minutes 1 seconds 61 msec
