LAMMPS data file via vdw_self_gen.py, on 2021-08-05 13:23:33.927479

6000 atoms
6 atom types
5500 bonds
5 bond types
9000 angles
7 angle types
8000 dihedrals
4 dihedral types

-40.2039343507159970  40.2039343507160041 xlo xhi
-40.2039343507159970  40.2039343507160041 ylo yhi
-40.2039343507159970  40.2039343507160041 zlo zhi

Masses

1  1.007940
2  1.007940
3  12.011000
4  12.011000
5  14.006740
6  15.999400

Atoms

1         0    3    0.0590150000000000   30.4500344604242521  3.7526425352934893  -21.4663811456586799 0 0 0
2         0    5    0.1101210000000000   31.3678039138433320  4.5225515464867607  -22.2786675624811252 0 0 0
3         0    3    0.0590150000000000   31.1562234155404632  4.6396274452778785  -23.7072631754031882 0 0 0
4         0    4    0.0214210000000000   32.4516660531670382  5.1543129561529364  -21.7044240729253133 0 0 0
5         0    6   -0.3860370000000000   33.2823619507870845  5.8270602291553137  -22.3003744672914053 0 0 0
6         0    1    0.0061770000000000   29.6498678892193084  3.3188615154960441  -22.0707975196837509 0 0 0
7         0    1    0.0061770000000000   30.0207946598332782  4.4082268967461991  -20.7027551619420045 0 0 0
8         0    1    0.0061770000000000   31.0072056533149052  2.9550227023964277  -20.9658477432946917 0 0 0
9         0    1    0.0061770000000000   30.2651063658177257  4.0914490346212018  -24.0226379567084827 0 0 0
10        0    1    0.0061770000000000   32.0328770622076249  4.2438342411193313  -24.2290639812928319 0 0 0
11        0    1    0.0061770000000000   31.0447981963042636  5.6975800820739000  -23.9637004704959864 0 0 0
12        0    2    0.0994030000000000   32.5079809862233873  4.9940766161352066  -20.6143157475958638 0 0 0
13        1    3    0.0590150000000000   22.6636500352009520  13.5413141024549972  5.8126447525815141  0 0 0
14        1    5    0.1101210000000000   22.4261901150626706  13.3469606483723258  4.3981804019123079  0 0 0
15        1    3    0.0590150000000000   21.1725404576584246  13.7653394666430291  3.8043115615842216  0 0 0
16        1    4    0.0214210000000000   23.3883799368318108  12.7640936511244654  3.5993737848245884  0 0 0
17        1    6   -0.3860370000000000   23.2867642146225293  12.5567151929035212  2.3975127860956169  0 0 0
18        1    1    0.0061770000000000   21.8070513074322712  14.0131815495105876  6.2998114591556771  0 0 0
19        1    1    0.0061770000000000   23.5506611141047486  14.1696133437308305  5.9375995992827626  0 0 0
20        1    1    0.0061770000000000   22.8595823499035582  12.5684862214047506  6.2734996807384844  0 0 0
21        1    1    0.0061770000000000   20.5083012081539096  14.2082059715217071  4.5504388276549781  0 0 0
22        1    1    0.0061770000000000   20.6865337081249443  12.8952573926198859  3.3524215511043556  0 0 0
23        1    1    0.0061770000000000   21.3795813653552216  14.4977568623269093  3.0180938636533439  0 0 0
24        1    2    0.0994030000000000   24.2969931923223257  12.4888130002510653  4.1613575323668455  0 0 0
25        2    3    0.0590150000000000  -30.2949393427191715  32.2010216741690556 -30.9229842311862271 0 0 0
26        2    5    0.1101210000000000  -31.3425014821536436  31.2340769240283862 -31.1729868157706242 0 0 0
27        2    3    0.0590150000000000  -31.5421963893462021  30.7025794873324429 -32.5060250438147378 0 0 0
28        2    4    0.0214210000000000  -32.1607587616705572  30.8061297352529913 -30.1478275943631324 0 0 0
29        2    6   -0.3860370000000000  -33.0708041423699228  29.9947301552779919 -30.2538915697937512 0 0 0
30        2    1    0.0061770000000000  -29.7401576884945911  32.4329624941066754 -31.8352190913963042 0 0 0
31        2    1    0.0061770000000000  -29.6128015732343215  31.7943237037662492 -30.1703574121633658 0 0 0
32        2    1    0.0061770000000000  -30.7468758737620576  33.1143466098487949 -30.5245350416092798 0 0 0
33        2    1    0.0061770000000000  -30.8266670732806283  31.1277884175651138 -33.2140261613287677 0 0 0
34        2    1    0.0061770000000000  -32.5608124622816888  30.9349747132851043 -32.8313920867245983 0 0 0
35        2    1    0.0061770000000000  -31.4244494594876898  29.6150857284257185 -32.4754892885789843 0 0 0
36        2    2    0.0994030000000000  -31.9137563578821890  31.2787009636241500 -29.1819862699528869 0 0 0
37        3    3    0.0590150000000000   14.5647184354924057 -4.6016994156311757   32.0221357053226114 0 0 0
38        3    5    0.1101210000000000   13.4136638863878428 -4.5050620978607974   31.1500092627124516 0 0 0
39        3    3    0.0590150000000000   12.1570705923973907 -3.9893496295453890   31.6543627519660191 0 0 0
40        3    4    0.0214210000000000   13.4985437320317505 -4.9000358678888807   29.8307570753376226 0 0 0
41        3    6   -0.3860370000000000   12.5877696575941407 -4.8580301108434032   29.0143456950229215 0 0 0
42        3    1    0.0061770000000000   14.3320881348786493 -4.2502189822798133   33.0301517350599738 0 0 0
43        3    1    0.0061770000000000   15.3768249792747298 -4.0014610602015717   31.6009953693096683 0 0 0
44        3    1    0.0061770000000000   14.8893635574880356 -5.6458212759029243   32.0619591728651159 0 0 0
45        3    1    0.0061770000000000   12.2349410008702417 -3.7169383053372447   32.7097198900133392 0 0 0
46        3    1    0.0061770000000000   11.3845143229237920 -4.7543126952147015   31.5301118913700016 0 0 0
47        3    1    0.0061770000000000   11.8746477201351315 -3.1089072518347707   31.0691294751828160 0 0 0
48        3    2    0.0994030000000000   14.5015913833899734 -5.2734091084139809   29.5630425825201186 0 0 0
49        4    3    0.0590150000000000  -3.9785987767431790   23.1121838271747855  23.3823742676662327 0 0 0
50        4    5    0.1101210000000000  -4.3766967129413912   22.2822183041226118  22.2654386644018949 0 0 0
51        4    3    0.0590150000000000  -5.7808197209994017   22.0731809282954146  21.9754378844901872 0 0 0
52        4    4    0.0214210000000000  -3.4270185689228736   21.6826831661498964  21.4639998069651057 0 0 0
53        4    6   -0.3860370000000000  -3.6583328853742785   20.9663700544659974  20.4990176033808389 0 0 0
54        4    1    0.0061770000000000  -4.8468015555362216   23.5099862940485771  23.9131555787964807 0 0 0
55        4    1    0.0061770000000000  -3.3663525497042484   23.9376308476784416  23.0069357531019492 0 0 0
56        4    1    0.0061770000000000  -3.3710917634969384   22.5128807819456824  24.0671676027212413 0 0 0
57        4    1    0.0061770000000000  -6.4165141457850332   22.6048795030594327  22.6876454685486308 0 0 0
58        4    1    0.0061770000000000  -5.9966259508648800   21.0013928826984824  22.0217845582301877 0 0 0
59        4    1    0.0061770000000000  -5.9902914539573553   22.4285056010063606  20.9618771228412122 0 0 0
60        4    2    0.0994030000000000  -2.3961017166288352   21.9143168141276909  21.7813946936294087 0 0 0
61        5    3    0.0590150000000000  -12.1848278242647314  31.6554603381725634 -30.7137336998613755 0 0 0
62        5    5    0.1101210000000000  -13.4925257540837329  31.2514550263092090 -31.1844519918718959 0 0 0
63        5    3    0.0590150000000000  -13.7345561602369131  31.0712471904030174 -32.6015987439675712 0 0 0
64        5    4    0.0214210000000000  -14.5217614324673576  31.0318030507605371 -30.2922288532570256 0 0 0
65        5    6   -0.3860370000000000  -15.6589698739651961  30.6884934107368714 -30.5866722125858992 0 0 0
66        5    1    0.0061770000000000  -11.4856010874690391  31.7873526440016470 -31.5428525443059549 0 0 0
67        5    1    0.0061770000000000  -11.8050964106265504  30.8905077345077608 -30.0297644958450007 0 0 0
68        5    1    0.0061770000000000  -12.2841298998487805  32.5954696009466360 -30.1626506692900662 0 0 0
69        5    1    0.0061770000000000  -12.8355645993560259  31.2785319266831578 -33.1871733595975584 0 0 0
70        5    1    0.0061770000000000  -14.5375022239464755  31.7464551890665270 -32.9127606552198060 0 0 0
71        5    1    0.0061770000000000  -14.0565183661039299  30.0404046212015814 -32.7780736232434364 0 0 0
72        5    2    0.0994030000000000  -14.2186837704952556  31.1995398738931584 -29.2447597576370626 0 0 0
73        6    3    0.0590150000000000  -22.1580809951677615 -13.3980348542527814 -32.6503990398962287 0 0 0
74        6    5    0.1101210000000000  -22.2277157691325407 -13.3924704309465294 -31.2047192988926589 0 0 0
75        6    3    0.0590150000000000  -23.5097426640066303 -13.4807599077808415 -30.5354133093035855 0 0 0
76        6    4    0.0214210000000000  -21.0774883417311294 -13.3049861371093545 -30.4477790339540419 0 0 0
77        6    6   -0.3860370000000000  -21.0283179119865231 -13.2934666530435059 -29.2249744663613349 0 0 0
78        6    1    0.0061770000000000  -23.1522972670449256 -13.4721140861938746 -33.0973866685054219 0 0 0
79        6    1    0.0061770000000000  -21.5462949993405743 -14.2469650172237543 -32.9700829120384142 0 0 0
80        6    1    0.0061770000000000  -21.6726320050004624 -12.4755525142343142 -32.9828692388609142 0 0 0
81        6    1    0.0061770000000000  -24.3295470745406242 -13.5440955808120158 -31.2551075081760565 0 0 0
82        6    1    0.0061770000000000  -23.6429111337042066 -12.5953585853703878 -29.9063023376521357 0 0 0
83        6    1    0.0061770000000000  -23.5152885564302387 -14.3684040638740012 -29.8954941403995029 0 0 0
84        6    2    0.0994030000000000  -20.1659122866876999 -13.2435295720226254 -31.0661926526423748 0 0 0
85        7    3    0.0590150000000000  -32.5450835568682777 -4.7124017442360664   30.7686828745418666 0 0 0
86        7    5    0.1101210000000000  -31.2485154628225104 -4.3457825596669331   31.2972388593801725 0 0 0
87        7    3    0.0590150000000000  -30.2324706716835152 -5.3575796999169434   31.5052725777558358 0 0 0
88        7    4    0.0214210000000000  -30.9638248445331712 -3.0318182278959438   31.6072133547691507 0 0 0
89        7    6   -0.3860370000000000  -29.9027263393251808 -2.6194717772233349   32.0564814340526354 0 0 0
90        7    1    0.0061770000000000  -32.6085821264320046 -5.7861418023353357   30.5768446945663541 0 0 0
91        7    1    0.0061770000000000  -32.7147414659587810 -4.1613984628195606   29.8387506823088593 0 0 0
92        7    1    0.0061770000000000  -33.3143812686809540 -4.4210672486222906   31.4901231459193802 0 0 0
93        7    1    0.0061770000000000  -30.5942245507849790 -6.3480142048916344   31.2185252304087832 0 0 0
94        7    1    0.0061770000000000  -29.9492702999818654 -5.3634992402629749   32.5622552957839702 0 0 0
95        7    1    0.0061770000000000  -29.3511945232703546 -5.1030756814986358   30.9085988793686859 0 0 0
96        7    2    0.0994030000000000  -31.8117054963410695 -2.3549951515849874   31.4067335778269765 0 0 0
97        8    3    0.0590150000000000  -32.4413354847875226  5.1928037876781570  -31.0736565208518236 0 0 0
98        8    5    0.1101210000000000  -31.1996395116461969  4.4548165720495438  -31.1655034476014059 0 0 0
99        8    3    0.0590150000000000  -30.7881033327085305  3.8727990258448446  -32.4269518404955548 0 0 0
100       8    4    0.0214210000000000  -30.3936199200701971  4.2980511233946830  -30.0567238422678216 0 0 0
101       8    6   -0.3860370000000000  -29.3287403271142857  3.6954881342546968  -30.0293242651773191 0 0 0
102       8    1    0.0061770000000000  -32.9586955896210014  5.2243993448175274  -32.0354735048439565 0 0 0
103       8    1    0.0061770000000000  -32.2215824747361950  6.2113894603174060  -30.7399588336146614 0 0 0
104       8    1    0.0061770000000000  -33.0812675118917241  4.7132879307083932  -30.3268484019210760 0 0 0
105       8    1    0.0061770000000000  -31.5186462615756930  4.0745646567506153  -33.2141291255891815 0 0 0
106       8    1    0.0061770000000000  -30.6773110287758399  2.7916687024631779  -32.2991541607281079 0 0 0
107       8    1    0.0061770000000000  -29.8183694872714504  4.2924319639076725  -32.7114934258685324 0 0 0
108       8    2    0.0994030000000000  -30.8094096764840266  4.7835450987679708  -29.1575032377232155 0 0 0
109       9    3    0.0590150000000000   30.8286442829530429 -21.6032819730161805  21.2368716544716349 0 0 0
110       9    5    0.1101210000000000   31.2019447362478388 -22.4396557038294020  22.3575837638357946 0 0 0
111       9    3    0.0590150000000000   32.3307814467294321 -22.0807599309811700  23.1920177060389818 0 0 0
112       9    4    0.0214210000000000   30.4887163337346330 -23.5850342720277020  22.6457649264062866 0 0 0
113       9    6   -0.3860370000000000   30.7212233248017910 -24.3563860249673816  23.5670457807291029 0 0 0
114       9    1    0.0061770000000000   31.4910296643106022 -20.7391475352164143  21.1459378985156441 0 0 0
115       9    1    0.0061770000000000   29.7980819503291521 -21.2641510046288751  21.3786241474214691 0 0 0
116       9    1    0.0061770000000000   30.8747329091968190 -22.2005881429916805  20.3212997016791803 0 0 0
117       9    1    0.0061770000000000   32.7994201530117309 -21.1551748054420514  22.8489137024849818 0 0 0
118       9    1    0.0061770000000000   33.0633981368492798 -22.8931882887253764  23.1658852245092994 0 0 0
119       9    1    0.0061770000000000   31.9843810185953572 -21.9553370936794821  24.2224134080737450 0 0 0
120       9    2    0.0994030000000000   29.6543666499229808 -23.7535242292676223  21.9438710906072494 0 0 0
121       10   3    0.0590150000000000  -12.5549526813812982  21.8111876217493332 -30.2968421267900823 0 0 0
122       10   5    0.1101210000000000  -13.3905430902595608  22.2790718332288513 -31.3820807693654587 0 0 0
123       10   3    0.0590150000000000  -14.3260194355872184  23.3644723694467409 -31.1672594903675169 0 0 0
124       10   4    0.0214210000000000  -13.3059700801893257  21.7003351702097405 -32.6316993039371752 0 0 0
125       10   6   -0.3860370000000000  -13.9645947232153755  22.0217002634080465 -33.6118725012204180 0 0 0
126       10   1    0.0061770000000000  -12.7434910808751507  22.3715622026189287 -29.3780465733444274 0 0 0
127       10   1    0.0061770000000000  -11.5059024875178295  21.9221246649547368 -30.5872710640533292 0 0 0
128       10   1    0.0061770000000000  -12.7582305873668052  20.7492921328419051 -30.1288335363066615 0 0 0
129       10   1    0.0061770000000000  -14.2861855961595925  23.7244291781243248 -30.1362916053084824 0 0 0
130       10   1    0.0061770000000000  -15.3368665135082232  23.0110342781787161 -31.3924697441291762 0 0 0
131       10   1    0.0061770000000000  -14.0817150885966296  24.1836075655944853 -31.8504668995585227 0 0 0
132       10   2    0.0994030000000000  -12.5612660382069787  20.8874117244175466 -32.6735869923014164 0 0 0
133       11   3    0.0590150000000000  -23.6481399363991329 -12.9389843131077509  13.4334235875394583 0 0 0
134       11   5    0.1101210000000000  -22.2670974931055135 -13.3531868824857547  13.3068223259255074 0 0 0
135       11   3    0.0590150000000000  -21.6971977994777028 -14.2922224316714725  14.2516953730426277 0 0 0
136       11   4    0.0214210000000000  -21.4785257439347497 -12.8618799034817783  12.2868187720631941 0 0 0
137       11   6   -0.3860370000000000  -20.3046903649279429 -13.1484442036978741  12.0924149525698326 0 0 0
138       11   1    0.0061770000000000  -24.1311769973185939 -13.4170600434615679  14.2889178667868055 0 0 0
139       11   1    0.0061770000000000  -24.1805041392181685 -13.2031709674706637  12.5147527696654066 0 0 0
140       11   1    0.0061770000000000  -23.6799347563322016 -11.8518146951690202  13.5526801771116983 0 0 0
141       11   1    0.0061770000000000  -22.4317627398440003 -14.5956805854126213  15.0016139794344578 0 0 0
142       11   1    0.0061770000000000  -20.8419796753720270 -13.8220844120371211  14.7466925047469157 0 0 0
143       11   1    0.0061770000000000  -21.3448723306903680 -15.1735308369994204  13.7070838543964637 0 0 0
144       11   2    0.0994030000000000  -22.0203470281529299 -12.1576781278689303  11.6328212395817054 0 0 0
145       12   3    0.0590150000000000   14.6829785367206362 -13.4708713815494665 -31.8084678139792167 0 0 0
146       12   5    0.1101210000000000   13.3941236617410233 -13.4421010275684658 -31.1505200530793900 0 0 0
147       12   3    0.0590150000000000   12.2267537518359877 -12.9493817577007615 -31.8532530842863579 0 0 0
148       12   4    0.0214210000000000   13.2607822842379601 -13.8837578858142052 -29.8502145129427312 0 0 0
149       12   6   -0.3860370000000000   12.2197456899013321 -13.9018102111861754 -29.2070050890373771 0 0 0
150       12   1    0.0061770000000000   14.6179973952178539 -13.0888096362882109 -32.8300146518955742 0 0 0
151       12   1    0.0061770000000000   15.0475959130701060 -14.5023709790518325 -31.8234696010888705 0 0 0
152       12   1    0.0061770000000000   15.3861298185531989 -12.8624596503252047 -31.2317666235296549 0 0 0
153       12   1    0.0061770000000000   12.4785518555832962 -12.6345497615993274 -32.8688952201196614 0 0 0
154       12   1    0.0061770000000000   11.8114937035377299 -12.1015690184296290 -31.2998792421896042 0 0 0
155       12   1    0.0061770000000000   11.4748966191172883 -13.7435062789475957 -31.8921959171890634 0 0 0
156       12   2    0.0994030000000000   14.2146881733476711 -14.2345498144031097 -29.4210387973451581 0 0 0
157       13   3    0.0590150000000000  -3.8463416311846563   3.2212431775125014  -31.2851101672134178 0 0 0
158       13   5    0.1101210000000000  -4.4366311040120054   4.5401655704721486  -31.3680073186651462 0 0 0
159       13   3    0.0590150000000000  -5.3565755242437012   4.9937088550107260  -30.3446016066747788 0 0 0
160       13   4    0.0214210000000000  -4.1304456837997225   5.3804968147432852  -32.4185924363263211 0 0 0
161       13   6   -0.3860370000000000  -4.5730540082287634   6.5100430099988698  -32.5799141773587948 0 0 0
162       13   1    0.0061770000000000  -4.1904798239300005   2.6852498998519385  -30.3973986270177043 0 0 0
163       13   1    0.0061770000000000  -2.7574878271424939   3.3242181359054950  -31.2541932500503066 0 0 0
164       13   1    0.0061770000000000  -4.1163995148913024   2.6577638368428835  -32.1832919945660123 0 0 0
165       13   1    0.0061770000000000  -5.5059668210368704   4.2291654645510670  -29.5783078878913770 0 0 0
166       13   1    0.0061770000000000  -6.3159786678575722   5.2352737093445505  -30.8121932948756232 0 0 0
167       13   1    0.0061770000000000  -4.9543951267093504   5.9006870756832894  -29.8829947581935969 0 0 0
168       13   2    0.0994030000000000  -3.4214900679182083   4.9272302510379280  -33.1321150878495985 0 0 0
169       14   3    0.0590150000000000   14.2785138347105072 -30.3916418519779725  3.8368387772174621  0 0 0
170       14   5    0.1101210000000000   13.4140532550799865 -31.3896152371235111  4.4298201486837314  0 0 0
171       14   3    0.0590150000000000   12.4365130203202163 -31.0077964008893012  5.4288136242993374  0 0 0
172       14   4    0.0214210000000000   13.5084053582064829 -32.7130277377091545  4.0512541240205895  0 0 0
173       14   6   -0.3860370000000000   12.8264029635393513 -33.6298956627498029  4.4894634140863712  0 0 0
174       14   1    0.0061770000000000   14.0776337136947447 -29.3975669227721497  4.2433038803999192  0 0 0
175       14   1    0.0061770000000000   14.1190163719041113 -30.3861367363890160  2.7543912923662699  0 0 0
176       14   1    0.0061770000000000   15.3193115527258250 -30.6662928087892261  4.0329963286825956  0 0 0
177       14   1    0.0061770000000000   12.4732476028602299 -29.9343753475054406  5.6299807973119504  0 0 0
178       14   1    0.0061770000000000   12.6385376685566424 -31.5600002978014658  6.3516932781220783  0 0 0
179       14   1    0.0061770000000000   11.4387722151334970 -31.2789221464136276  5.0704233854824539  0 0 0
180       14   2    0.0994030000000000   14.2853298461324929 -32.8814494565619952  3.2862667502819312  0 0 0
181       15   3    0.0590150000000000  -5.5398515887313904  -4.7612911983748649   30.4328174771383750 0 0 0
182       15   5    0.1101210000000000  -4.4483106023627341  -4.5530490985233607   31.3602027158751007 0 0 0
183       15   3    0.0590150000000000  -3.5981924737554323  -3.3862560406368480   31.2367052418886217 0 0 0
184       15   4    0.0214210000000000  -4.2051699939295810  -5.4593845312733800   32.3716738864838263 0 0 0
185       15   6   -0.3860370000000000  -3.3123418593278871  -5.3752083375356756   33.2044846276918761 0 0 0
186       15   1    0.0061770000000000  -5.5962512162148546  -3.9565882794341727   29.6959158810836144 0 0 0
187       15   1    0.0061770000000000  -6.4762270571779084  -4.8107239578781265   30.9966611512001258 0 0 0
188       15   1    0.0061770000000000  -5.3907451828322399  -5.7178098580370591   29.9229055667676676 0 0 0
189       15   1    0.0061770000000000  -3.9049450646749850  -2.7589988489023258   30.3961686976019045 0 0 0
190       15   1    0.0061770000000000  -2.5646895785556949  -3.7145873455147056   31.0900073293234485 0 0 0
191       15   1    0.0061770000000000  -3.6530125286060007  -2.8078310078206536   32.1639908993306776 0 0 0
192       15   2    0.0994030000000000  -4.9155086547859446  -6.3035172970234843   32.3651871322974216 0 0 0
193       16   3    0.0590150000000000  -22.3176469373195943 -23.6546983254512568 -4.0230342405017749  0 0 0
194       16   5    0.1101210000000000  -22.2272235313321431 -22.2738494092289336 -4.4472390923331320  0 0 0
195       16   3    0.0590150000000000  -23.3572107254274535 -21.6315081994890264 -5.0874618739103363  0 0 0
196       16   4    0.0214210000000000  -21.0678860399167114 -21.5532564438009402 -4.2464467611193655  0 0 0
197       16   6   -0.3860370000000000  -20.8904955554561269 -20.3852499425347382 -4.5659696385831570  0 0 0
198       16   1    0.0061770000000000  -23.2974045103012557 -24.0795930274862826 -4.2538832352313367  0 0 0
199       16   1    0.0061770000000000  -22.1395748554007135 -23.7040236936448956 -2.9446003546776902  0 0 0
200       16   1    0.0061770000000000  -21.5377313263597010 -24.2304698112454382 -4.5303700847188422  0 0 0
201       16   1    0.0061770000000000  -24.2027789769712030 -22.3172931921929099 -5.1810764810151166  0 0 0
202       16   1    0.0061770000000000  -23.0534271352417761 -21.2876624786547168 -6.0809082027564640  0 0 0
203       16   1    0.0061770000000000  -23.6549721281694083 -20.7626140214917605 -4.4926505576262752  0 0 0
204       16   2    0.0994030000000000  -20.2798772828772371 -22.1460104595524392 -3.7516052784811587  0 0 0
205       17   3    0.0590150000000000  -32.4004229991704378 -31.5125956969735377  5.2418887227784188  0 0 0
206       17   5    0.1101210000000000  -31.2918662432219925 -31.1967584532832660  4.3665495699700942  0 0 0
207       17   3    0.0590150000000000  -29.9667105185959386 -31.7075421614351178  4.6536398128858236  0 0 0
208       17   4    0.0214210000000000  -31.4826373518603226 -30.4090120109130950  3.2499936476168818  0 0 0
209       17   6   -0.3860370000000000  -30.6153520360667706 -30.0859459113237619  2.4492153284142257  0 0 0
210       17   1    0.0061770000000000  -32.0830636408555492 -32.1429487491455887  6.0759688959676268  0 0 0
211       17   1    0.0061770000000000  -33.1707817674638505 -32.0295262792247541  4.6618090337296936  0 0 0
212       17   1    0.0061770000000000  -32.8227748376032693 -30.5790630608013316  5.6256940962085089  0 0 0
213       17   1    0.0061770000000000  -29.9632273655521324 -32.3126335452139486  5.5635314019344841  0 0 0
214       17   1    0.0061770000000000  -29.2797914932214880 -30.8640826032514859  4.7726699938791244  0 0 0
215       17   1    0.0061770000000000  -29.6303532401115532 -32.3158135299192750  3.8084716810960768  0 0 0
216       17   2    0.0994030000000000  -32.5297391129593692 -30.0807986051975043  3.1358136164737398  0 0 0
217       18   3    0.0590150000000000   5.2627724303417693   21.5389496368447517  14.2199320263144973 0 0 0
218       18   5    0.1101210000000000   4.3438953402963847   22.3280672678483647  13.4275759599346287 0 0 0
219       18   3    0.0590150000000000   4.8412285246243743   23.1814329124061089  12.3674885677566557 0 0 0
220       18   4    0.0214210000000000   2.9865744954447644   22.2766075512810175  13.6697891362939732 0 0 0
221       18   6   -0.3860370000000000   2.1295357150087306   22.9011086383714613  13.0588191196388284 0 0 0
222       18   1    0.0061770000000000   6.2968709708214332   21.6926875857949213  13.9025103515183055 0 0 0
223       18   1    0.0061770000000000   4.9989218194087330   20.4821465921744945  14.1164308945045907 0 0 0
224       18   1    0.0061770000000000   5.1541711146395714   21.8225450235030145  15.2710981567591269 0 0 0
225       18   1    0.0061770000000000   5.9295882201866510   23.1233879844894439  12.2890387218757287 0 0 0
226       18   1    0.0061770000000000   4.5440107733283943   24.2139824351133974  12.5747397418703866 0 0 0
227       18   1    0.0061770000000000   4.3890886369255790   22.8707917877340279  11.4206458875218821 0 0 0
228       18   2    0.0994030000000000   2.7285877599283119   21.5945215892123592  14.4976688388754766 0 0 0
229       19   3    0.0590150000000000  -23.3007585291056465 -5.4477326398237009   31.4805133353741233 0 0 0
230       19   5    0.1101210000000000  -22.2926059735268680 -4.4144870264474259   31.3761016252134617 0 0 0
231       19   3    0.0590150000000000  -21.7943420298066215 -4.0095104383929669   30.0772230688749254 0 0 0
232       19   4    0.0214210000000000  -21.7959050942277344 -3.8026469716648359   32.5086099849914802 0 0 0
233       19   6   -0.3860370000000000  -20.9466519442989743 -2.9216344302042438   32.5282932094542119 0 0 0
234       19   1    0.0061770000000000  -23.5857788032087754 -5.8278607524627457   30.4966344153175690 0 0 0
235       19   1    0.0061770000000000  -24.1792516819495589 -5.0328131565214225   31.9837567229933946 0 0 0
236       19   1    0.0061770000000000  -22.9049552708270028 -6.2651970247983195   32.0906465855204459 0 0 0
237       19   1    0.0061770000000000  -22.2735544833501038 -4.5751217766144476   29.2744219369972072 0 0 0
238       19   1    0.0061770000000000  -20.7129470984029247 -4.1738893999742297   30.0453715850183727 0 0 0
239       19   1    0.0061770000000000  -21.9898835509739961 -2.9416806112186964   29.9395916001023288 0 0 0
240       19   2    0.0994030000000000  -22.2495945450951282 -4.1926715728316228   33.4355565368251533 0 0 0
241       20   3    0.0590150000000000  -22.0160762956954699 -13.4131753473812534  29.9148958690859637 0 0 0
242       20   5    0.1101210000000000  -22.2395520625872507 -13.4342891619191551  31.3447499408526618 0 0 0
243       20   3    0.0590150000000000  -23.5352880102975668 -13.0777181656148702  31.8863069341652619 0 0 0
244       20   4    0.0214210000000000  -21.2250910165165152 -13.7947845257964108  32.2076213563764711 0 0 0
245       20   6   -0.3860370000000000  -21.3113887066697103 -13.8452946568507773  33.4273766086853570 0 0 0
246       20   1    0.0061770000000000  -22.9154529724509928 -13.1075155074023826  29.3750391070348833 0 0 0
247       20   1    0.0061770000000000  -21.7141984379398423 -14.4137312439307319  29.5909823601411688 0 0 0
248       20   1    0.0061770000000000  -21.2008765361055858 -12.7168466163202059  29.6963862053098708 0 0 0
249       20   1    0.0061770000000000  -24.2386307826076681 -12.8152868252336312  31.0922734618702670 0 0 0
250       20   1    0.0061770000000000  -23.4144010064881734 -12.2269060549393132  32.5637691414785522 0 0 0
251       20   1    0.0061770000000000  -23.9268896354516656 -13.9257060747618535  32.4563982607237236 0 0 0
252       20   2    0.0994030000000000  -20.2883835419628795 -14.0444832227134029  31.6809213609584788 0 0 0
253       21   3    0.0590150000000000  -12.2975480302590885 -23.1830653259036019 -22.3020115615473244 0 0 0
254       21   5    0.1101210000000000  -13.4932064554308031 -22.3687419975560324 -22.2556615310743382 0 0 0
255       21   3    0.0590150000000000  -13.6149377188937724 -21.2018310801197636 -23.1058726277225297 0 0 0
256       21   4    0.0214210000000000  -14.5299069837033539 -22.6932837912931653 -21.4050383243033906 0 0 0
257       21   6   -0.3860370000000000  -15.5789716289490823 -22.0733491549956540 -21.2912584622268888 0 0 0
258       21   1    0.0061770000000000  -11.5763407214610510 -22.7920855912997204 -23.0236392584003262 0 0 0
259       21   1    0.0061770000000000  -12.5776156575665112 -24.2042603622369796 -22.5774841124529431 0 0 0
260       21   1    0.0061770000000000  -11.8469139029673833 -23.2035919180715275 -21.3051773901657207 0 0 0
261       21   1    0.0061770000000000  -12.7238846684269369 -21.0663578994979481 -23.7237090927243557 0 0 0
262       21   1    0.0061770000000000  -13.7615319872283042 -20.3185757084133307 -22.4767303333699715 0 0 0
263       21   1    0.0061770000000000  -14.4916591199145586 -21.3220024909498740 -23.7495789773193309 0 0 0
264       21   2    0.0994030000000000  -14.3232205280631373 -23.5990836844357403 -20.8100673334662005 0 0 0
265       22   3    0.0590150000000000   12.9580687904631056 -30.8344722880982758 -21.0897901403286845 0 0 0
266       22   5    0.1101210000000000   13.4899586361958530 -31.3593324272961915 -22.3293404234505708 0 0 0
267       22   3    0.0590150000000000   13.0030516123313369 -30.8631602147885609 -23.6005969609938973 0 0 0
268       22   4    0.0214210000000000   14.4657168636045483 -32.3347089006434416 -22.3162324874987021 0 0 0
269       22   6   -0.3860370000000000   14.9796934481770379 -32.8417860282106915 -23.3044137954626613 0 0 0
270       22   1    0.0061770000000000   12.1967681493437716 -30.0725633885005337 -21.2732780978219296 0 0 0
271       22   1    0.0061770000000000   13.7789406415846276 -30.4027031978297799 -20.5093530971232809 0 0 0