LAMMPS data file via vdw_self_gen.py, on 2021-08-05 13:21:13.238724

11500 atoms
9 atom types
11000 bonds
8 bond types
19000 angles
13 angle types
20000 dihedrals
10 dihedral types

-60.7147015108197010  60.7147015108197010 xlo xhi
-60.7147015108197010  60.7147015108197010 ylo yhi
-60.7147015108197010  60.7147015108197010 zlo zhi

Masses

1  1.007940
2  1.007940
3  1.007940
4  12.011000
5  12.011000
6  12.011000
7  12.011000
8  15.999400
9  15.999400

Atoms

1         0    6   -0.1186820000000000   21.9301486386222457 -44.1387455748249948  20.8976715678502423 0 0 0
2         0    4    0.2337370000000000   20.4653081667646184 -44.0672892339623985  20.5123355642657650 0 0 0
3         0    8   -0.1823940000000000   19.9979272045061620 -45.3679263988850749  20.1281635589865466 0 0 0
4         0    5    0.3300090000000000   18.9731268570358829 -45.8871404937966929  20.8584976844865899 0 0 0
5         0    9   -0.4278410000000000   18.4384946955676519 -45.3527734530666748  21.8214132491677582 0 0 0
6         0    7    0.1685680000000000   18.5190583048744841 -47.1885660150178836  20.2815764256893516 0 0 0
7         0    5    0.3300090000000000   19.5358168287911944 -48.2649172399362669  20.4461296710521090 0 0 0
8         0    9   -0.4278410000000000   20.6140073197446334 -48.1417281241239792  21.0161255426713467 0 0 0
9         0    8   -0.1823940000000000   19.0890771386154690 -49.4197769640523745  19.8773933863505334 0 0 0
10        0    4    0.2337370000000000   19.9874509590102356 -50.5328606205987114  19.9834828271952851 0 0 0
11        0    6   -0.1186820000000000   21.0664024159209049 -50.4383738186058039  18.9200791358440199 0 0 0
12        0    1    0.0285690000000000   22.3069167399890205 -43.1418648557975644  21.1465117911338290 0 0 0
13        0    1    0.0285690000000000   22.5318331336741338 -44.5471633386331547  20.0793511870579167 0 0 0
14        0    1    0.0285690000000000   22.0743564856282468 -44.7941922170972973  21.7624920662173054 0 0 0
15        0    3   -0.0094320000000000   20.3438975745551360 -43.4176013875256999  19.6404384604789790 0 0 0
16        0    3   -0.0094320000000000   19.8871811843416069 -43.6329916673365190  21.3335822233867063 0 0 0
17        0    2    0.0140440000000000   18.2872365945769779 -47.0402834646476222  19.2207836888691794 0 0 0
18        0    2    0.0140440000000000   17.6001185301807261 -47.4910171523287801  20.7961700405206393 0 0 0
19        0    3   -0.0094320000000000   19.3968814762365334 -51.4424476897091267  19.8342277980554762 0 0 0
20        0    3   -0.0094320000000000   20.4167564034071241 -50.5908188469093076  20.9907903384916743 0 0 0
21        0    1    0.0285690000000000   20.6177531509470811 -50.3956702426976406  17.9224599859460767 0 0 0
22        0    1    0.0285690000000000   21.7391515695441662 -51.2981044352091331  18.9728661349446810 0 0 0
23        0    1    0.0285690000000000   21.6604768770835818 -49.5262960143453128  19.0368359209558058 0 0 0
24        1    6   -0.1186820000000000  -36.0367725531043064 -17.6554009520688666  21.1420198109231201 0 0 0
25        1    4    0.2337370000000000  -34.5707462067298437 -17.2823295959325876  21.0374637624773833 0 0 0
26        1    8   -0.1823940000000000  -33.7808070871330841 -18.4616698170574871  20.8304783560648517 0 0 0
27        1    5    0.3300090000000000  -33.0438386885358852 -18.5081630156780932  19.6868425200789758 0 0 0
28        1    9   -0.4278410000000000  -33.0178590008345694 -17.6470063827918686  18.8171757008527791 0 0 0
29        1    7    0.1685680000000000  -32.1918179062042711 -19.7352990209928052  19.6564684005813959 0 0 0
30        1    5    0.3300090000000000  -32.9977605218803376 -20.9790557805864815  19.5050311227986271 0 0 0
31        1    9   -0.4278410000000000  -34.2162869324660548 -21.0244193204576071  19.3797270021343380 0 0 0
32        1    8   -0.1823940000000000  -32.1801059972535128 -22.0690482590469585  19.5148173353881980 0 0 0
33        1    4    0.2337370000000000  -32.8499482020045619 -23.3286278042015525  19.3663030018630877 0 0 0
34        1    6   -0.1186820000000000  -33.4369531907510620 -23.7695787806813108  20.6947904095671511 0 0 0
35        1    1    0.0285690000000000  -36.6415409792641640 -16.7667544081935453  21.3474688257140635 0 0 0
36        1    1    0.0285690000000000  -36.2002844321025350 -18.3839738592649304  21.9425964351923710 0 0 0
37        1    1    0.0285690000000000  -36.3900198538500703 -18.1128380308409689  20.2123487067791459 0 0 0
38        1    3   -0.0094320000000000  -34.2345140490275881 -16.8379998791648262  21.9790360795215740 0 0 0
39        1    3   -0.0094320000000000  -34.4340853580039408 -16.5351807904658905  20.2498193412978722 0 0 0
40        1    2    0.0140440000000000  -31.5987340937438788 -19.7735390233482491  20.5772287082713525 0 0 0
41        1    2    0.0140440000000000  -31.5044324423015993 -19.6558659802549656  18.8068065828830520 0 0 0
42        1    3   -0.0094320000000000  -32.1039440545077923 -24.0556814234914214  19.0297486071582647 0 0 0
43        1    3   -0.0094320000000000  -33.6169328452403988 -23.2708565862301384  18.5848122557153843 0 0 0
44        1    1    0.0285690000000000  -32.6535697391204351 -23.8342599014871617  21.4566830837165803 0 0 0
45        1    1    0.0285690000000000  -33.9239352617631411 -24.7433648281727052  20.5993764675886162 0 0 0
46        1    1    0.0285690000000000  -34.1740743535398863 -23.0484648092073030  21.0623357330496361 0 0 0
47        2    6   -0.1186820000000000   19.9225605788328721 -3.8486599202716696   49.2992198147599865 0 0 0
48        2    4    0.2337370000000000   18.8723207283016770 -4.0610916132795829   48.2262722463942239 0 0 0
49        2    8   -0.1823940000000000   19.2437054250621244 -5.1676157120079242   47.3923849912778152 0 0 0
50        2    5    0.3300090000000000   18.3752254995842037 -6.2149574085265789   47.3476082877892495 0 0 0
51        2    9   -0.4278410000000000   17.3258876756124138 -6.3012005168663618   47.9721387709892682 0 0 0
52        2    7    0.1685680000000000   18.8334273271581338 -7.2399252805806773   46.3615977793945433 0 0 0
53        2    5    0.3300090000000000   20.0712675525985524 -7.9388904469513726   46.8072511181927595 0 0 0
54        2    9   -0.4278410000000000   20.6514414919436398 -7.7468272014226249   47.8698307606298670 0 0 0
55        2    8   -0.1823940000000000   20.4652405167077980 -8.8382361194316541   45.8624225836734283 0 0 0
56        2    4    0.2337370000000000   21.6483425169664514 -9.5800400153302405   46.1899624348574633 0 0 0
57        2    6   -0.1186820000000000   22.8848295636975507 -8.7488577186482814   45.8999155664918490 0 0 0
58        2    1    0.0285690000000000   19.6706545761416933 -2.9765713530869919   49.9104903961672051 0 0 0
59        2    1    0.0285690000000000   20.9110791537722847 -3.6924940916377245   48.8554622142990667 0 0 0
60        2    1    0.0285690000000000   19.9964239428264392 -4.7246833545641067   49.9514834458402674 0 0 0
61        2    3   -0.0094320000000000   18.8220653037938135 -3.1804695532230061   47.5789558099048904 0 0 0
62        2    3   -0.0094320000000000   17.8896490726024844 -4.1891296075023625   48.6902269299796160 0 0 0
63        2    2    0.0140440000000000   18.9980817681324226 -6.7487802746555090   45.3958463885996792 0 0 0
64        2    2    0.0140440000000000   18.0354421531873861 -7.9809473015240329   46.2397798209487334 0 0 0
65        2    3   -0.0094320000000000   21.6505917897103757 -10.4799593670031577  45.5666341784333468 0 0 0
66        2    3   -0.0094320000000000   21.6211596372708534 -9.9132304403572871   47.2342688911344268 0 0 0
67        2    1    0.0285690000000000   22.8997192006219130 -8.4384900230582396   44.8502470860436802 0 0 0
68        2    1    0.0285690000000000   23.7932355173519490 -9.3161881610700839   46.1177444364029228 0 0 0
69        2    1    0.0285690000000000   22.8970272577407812 -7.8325472688730686   46.4988052969037042 0 0 0
70        3    6   -0.1186820000000000  -8.3352355389069448  -34.0913246910315237  50.4086970015567104 0 0 0
71        3    4    0.2337370000000000  -7.2907544879719941  -35.1212844272221361  50.0245229155436419 0 0 0
72        3    8   -0.1823940000000000  -6.8833193498281195  -34.9188895701709967  48.6641100891027349 0 0 0
73        3    5    0.3300090000000000  -5.5645927554591488  -34.6523656378528742  48.4564754912975673 0 0 0
74        3    9   -0.4278410000000000  -4.7102816702900956  -34.5479082475770696  49.3270082536758991 0 0 0
75        3    7    0.1685680000000000  -5.2647491235445809  -34.5744018027665376  46.9947162043358304 0 0 0
76        3    5    0.3300090000000000  -5.8823109512009264  -33.3794777235946967  46.3542620998622326 0 0 0
77        3    9   -0.4278410000000000  -6.5351190874036904  -32.5202415996590375  46.9357433182446471 0 0 0
78        3    8   -0.1823940000000000  -5.6072988979201277  -33.3708262423043962  45.0197090596567335 0 0 0
79        3    4    0.2337370000000000  -6.1475313129244444  -32.2549986794720809  44.2983468032956864 0 0 0
80        3    6   -0.1186820000000000  -7.6132066246439667  -32.4941680350927413  43.9845231062174236 0 0 0
81        3    1    0.0285690000000000  -8.6861198205566712  -34.2683378614787983  51.4300653901802036 0 0 0
82        3    1    0.0285690000000000  -9.1938769256310131  -34.1312839466826929  49.7307473176624057 0 0 0
83        3    1    0.0285690000000000  -7.9243056523641791  -33.0784267160783330  50.3495783151566627 0 0 0
84        3    3   -0.0094320000000000  -7.7237570486076388  -36.1245807581224057  50.0787874913278870 0 0 0
85        3    3   -0.0094320000000000  -6.4547280061626120  -35.0814766911771372  50.7293394343372910 0 0 0
86        3    2    0.0140440000000000  -5.6205280053188211  -35.4927873036293420  46.5140919127228756 0 0 0
87        3    2    0.0140440000000000  -4.1776326522531235  -34.5185263558454878  46.8690607202605634 0 0 0
88        3    3   -0.0094320000000000  -5.5781832516551670  -32.1632119336122742  43.3678544645774195 0 0 0
89        3    3   -0.0094320000000000  -6.0007467990988621  -31.3232422415079483  44.8574666381373675 0 0 0
90        3    1    0.0285690000000000  -7.7363038117810650  -33.4207656466938161  43.4147708132917103 0 0 0
91        3    1    0.0285690000000000  -8.0270359484790479  -31.6627244880275640  43.4083620672032566 0 0 0
92        3    1    0.0285690000000000  -8.2021750278703127  -32.6077131497630504  44.9003103414612497 0 0 0
93        4    6   -0.1186820000000000   22.5927793882072159  36.3830733732062086  33.2543211832730563 0 0 0
94        4    4    0.2337370000000000   21.3432457107106686  36.6892090129590684  34.0570004537011997 0 0 0
95        4    8   -0.1823940000000000   20.4454275667940593  35.5715626470294737  34.0072077887945738 0 0 0
96        4    5    0.3300090000000000   20.1228148103540931  34.9959352906221000  35.1979055335382540 0 0 0
97        4    9   -0.4278410000000000   20.5495832601589186  35.3335231191594517  36.2944862260887930 0 0 0
98        4    7    0.1685680000000000   19.1011223550368818  33.9224992333812381  35.0065829421825896 0 0 0
99        4    5    0.3300090000000000   19.6499133251516653  32.7431774142162695  34.2803349515747655 0 0 0
100       4    9   -0.4278410000000000   20.8093020170556819  32.6188361891099632  33.9022837546130873 0 0 0
101       4    8   -0.1823940000000000   18.6742170148706101  31.8085921403929746  34.1034017134408671 0 0 0
102       4    4    0.2337370000000000   19.0929502328488354  30.6195226840529564  33.4192511179862848 0 0 0
103       4    6   -0.1186820000000000   19.1206955829614813  30.8596237048543927  31.9207608416557314 0 0 0
104       4    1    0.0285690000000000   23.2621704305483767  37.2488221787023548  33.2478818420486704 0 0 0
105       4    1    0.0285690000000000   22.3418320341851881  36.1257745916585620  32.2202514034595993 0 0 0
106       4    1    0.0285690000000000   23.1290488310422226  35.5281953004073898  33.6784900927056015 0 0 0
107       4    3   -0.0094320000000000   20.8162957200394061  37.5379747467440907  33.6109513243623610 0 0 0
108       4    3   -0.0094320000000000   21.6185535384381033  36.9684720119078349  35.0785233544284125 0 0 0
109       4    2    0.0140440000000000   18.2476443157590680  34.3433132313865457  34.4629828445434399 0 0 0
110       4    2    0.0140440000000000   18.7545268831544192  33.5975585526909413  35.9940133049439837 0 0 0
111       4    3   -0.0094320000000000   18.3670691568284035  29.8352649544980686  33.6568105655122523 0 0 0
112       4    3   -0.0094320000000000   20.0663589988920990  30.2792852199710012  33.7921379441483509 0 0 0
113       4    1    0.0285690000000000   18.1370593408567551  31.1847125927553641  31.5670226831523095 0 0 0
114       4    1    0.0285690000000000   19.4095823902758582  29.9502908403107533  31.3876822563415416 0 0 0
115       4    1    0.0285690000000000   19.8271853454477736  31.6537447193459087  31.6586796268671868 0 0 0
116       5    6   -0.1186820000000000   19.9567739397704997  47.7529118765218854 -16.7102388691817865 0 0 0
117       5    4    0.2337370000000000   20.2008524382191439  48.9669866831234373 -17.5853362939697142 0 0 0
118       5    8   -0.1823940000000000   20.4489486203210440  48.5527836396060763 -18.9361043167876311 0 0 0
119       5    5    0.3300090000000000   19.5885270000816192  49.0171106425870278 -19.8833434804244114 0 0 0
120       5    9   -0.4278410000000000   18.6161127335076948  49.7317410953842440 -19.6776741411967535 0 0 0
121       5    7    0.1685680000000000   20.0292569605011010  48.5988968870545577 -21.2484731932620008 0 0 0
122       5    5    0.3300090000000000   19.8928541693599357  47.1307050339238032 -21.4611104121804814 0 0 0
123       5    9   -0.4278410000000000   19.4407004352728769  46.3344427240681753 -20.6461939002883135 0 0 0
124       5    8   -0.1823940000000000   20.3360479207426401  46.7962286258445488 -22.7054749591978364 0 0 0
125       5    4    0.2337370000000000   20.2436357916288685  45.4010952385919140 -23.0253945541989147 0 0 0
126       5    6   -0.1186820000000000   21.4114547295724051  44.6458019272902362 -22.4174288027101056 0 0 0
127       5    1    0.0285690000000000   19.8137211511404949  48.0573957848367286 -15.6688588827491238 0 0 0
128       5    1    0.0285690000000000   20.8006632390533248  47.0572988710875535 -16.7597458810746325 0 0 0
129       5    1    0.0285690000000000   19.0680344410434905  47.2060796281855772 -17.0410519493069543 0 0 0
130       5    3   -0.0094320000000000   21.0984613062558815  49.4925502111334623 -17.2460418976890466 0 0 0
131       5    3   -0.0094320000000000   19.3581062434712656  49.6597574496306962 -17.5008450186159337 0 0 0
132       5    2    0.0140440000000000   21.0698414491536070  48.9111857350472974 -21.3922433153151275 0 0 0
133       5    2    0.0140440000000000   19.4080095537596691  49.1203102022999474 -21.9852997689919043 0 0 0
134       5    3   -0.0094320000000000   20.2727677378057578  45.3152725684922899 -24.1163500129638102 0 0 0
135       5    3   -0.0094320000000000   19.2815673999653718  44.9902050978456387 -22.6968759932323749 0 0 0
136       5    1    0.0285690000000000   22.3609828258332648  45.0622625379860509 -22.7685850083367214 0 0 0
137       5    1    0.0285690000000000   21.3669565164618653  43.5859655619357511 -22.6806424266017714 0 0 0
138       5    1    0.0285690000000000   21.4151016466960264  44.7315612266311149 -21.3260651713424174 0 0 0
139       6    6   -0.1186820000000000  -50.2905207062170945  31.8900377975786355 -6.8349045834425448  0 0 0
140       6    4    0.2337370000000000  -49.8642944533524286  32.6056801289042539 -8.1020015360408006  0 0 0
141       6    8   -0.1823940000000000  -48.7113130928836782  33.4176787799989512 -7.8393567163088536  0 0 0
142       6    5    0.3300090000000000  -47.5896489256793060  33.1328742157770719 -8.5562547701548120  0 0 0
143       6    9   -0.4278410000000000  -47.4764503005145784  32.2350163721354761 -9.3806475350867196  0 0 0
144       6    7    0.1685680000000000  -46.5085448250805200  34.1212871921112679 -8.2613336144493434  0 0 0
145       6    5    0.3300090000000000  -45.9807654419421183  33.9844148542605069 -6.8749272844849569  0 0 0
146       6    9   -0.4278410000000000  -46.3422105398969748  33.1456150823338902 -6.0574078838098089  0 0 0
147       6    8   -0.1823940000000000  -45.0225904758373829  34.9256451437941280 -6.6453089683718325  0 0 0
148       6    4    0.2337370000000000  -44.4342713453578995  34.8829978179328464 -5.3378887897724834  0 0 0
149       6    6   -0.1186820000000000  -45.3389792690667903  35.5735127404376144 -4.3336058976168097  0 0 0
150       6    1    0.0285690000000000  -51.1979064916275419  31.3054347258064283 -7.0152850474888648  0 0 0
151       6    1    0.0285690000000000  -50.4873139015895802  32.6036090715831364 -6.0283278529508451  0 0 0
152       6    1    0.0285690000000000  -49.5027705897345740  31.2157234794139029 -6.4840903124959670  0 0 0
153       6    3   -0.0094320000000000  -50.6593267251589765  33.2822345119489853 -8.4294725162345809  0 0 0
154       6    3   -0.0094320000000000  -49.6981131711807222  31.8766991343604111 -8.9009143913320585  0 0 0
155       6    2    0.0140440000000000  -46.9027734659136897  35.1310315464304352 -8.4226109168431069  0 0 0
156       6    2    0.0140440000000000  -45.6879772712054120  33.9547057409531163 -8.9681950563581943  0 0 0
157       6    3   -0.0094320000000000  -43.4749190147739242  35.4070803764096169 -5.3960144442078244  0 0 0
158       6    3   -0.0094320000000000  -44.2177621773044436  33.8493284690692491 -5.0429613406113107  0 0 0
159       6    1    0.0285690000000000  -45.5311735431913860  36.6070264607035725 -4.6389982315345328  0 0 0
160       6    1    0.0285690000000000  -44.8857439523056314  35.5731529202288286 -3.3390747305487052  0 0 0
161       6    1    0.0285690000000000  -46.3131795692933537  35.0781771871906400 -4.2702103297275862  0 0 0
162       7    6   -0.1186820000000000  -6.6870476345878682  -49.0326039412712760  50.3092041408175561 0 0 0
163       7    4    0.2337370000000000  -8.0128864415100640  -48.4463120117520347  49.8645012245467711 0 0 0
164       7    8   -0.1823940000000000  -7.8184380556138899  -47.6242228894250985  48.7051697669928529 0 0 0
165       7    5    0.3300090000000000  -8.4939285924921091  -47.9876568909732129  47.5805297247985877 0 0 0
166       7    9   -0.4278410000000000  -9.2271672781017919  -48.9616749423574475  47.4699135754213799 0 0 0
167       7    7    0.1685680000000000  -8.2849826702108622  -46.9861683654660851  46.4914534597741493 0 0 0
168       7    5    0.3300090000000000  -6.8868638359372030  -46.9943269417624592  45.9770559590200278 0 0 0
169       7    9   -0.4278410000000000  -5.9960581578555594  -47.7470548905724428  46.3544568939391297 0 0 0
170       7    8   -0.1823940000000000  -6.7395585672599951  -46.0448668389878009  45.0108443022081985 0 0 0
171       7    4    0.2337370000000000  -5.4285279623423737  -45.9674304251850785  44.4342265155533696 0 0 0
172       7    6   -0.1186820000000000  -4.5038845286949298  -45.1746961057790415  45.3400400903845764 0 0 0
173       7    1    0.0285690000000000  -6.8191083580311771  -49.6228729053552229  51.2212289991755441 0 0 0
174       7    1    0.0285690000000000  -5.9546421974240697  -48.2428992448225458  50.5052304528772567 0 0 0
175       7    1    0.0285690000000000  -6.2655917733251814  -49.6777991611475258  49.5317603913050064 0 0 0
176       7    3   -0.0094320000000000  -8.4113926297768540  -47.7965715447838093  50.6494021946041286 0 0 0
177       7    3   -0.0094320000000000  -8.7364762129727040  -49.2503160740268342  49.6993147548216001 0 0 0
178       7    2    0.0140440000000000  -8.5462415215902432  -45.9927693312003569  46.8734383048869461 0 0 0
179       7    2    0.0140440000000000  -8.9647119330819773  -47.2280018675404705  45.6666999966888909 0 0 0
180       7    3   -0.0094320000000000  -5.5275518195911770  -45.4608376571993631  43.4688478037929826 0 0 0
181       7    3   -0.0094320000000000  -5.0336421460134115  -46.9700444610356200  44.2313447024756456 0 0 0
182       7    1    0.0285690000000000  -4.9089392658445146  -44.1734824396211181  45.5185214093265671 0 0 0
183       7    1    0.0285690000000000  -3.5096333373851341  -45.0839167610351055  44.8953623382461018 0 0 0
184       7    1    0.0285690000000000  -4.4025178302294581  -45.6520235578080147  46.3200022474507307 0 0 0
185       8    6   -0.1186820000000000   5.0467125132060318   34.0289758878039450 -36.8657142672784133 0 0 0
186       8    4    0.2337370000000000   5.1089152732806342   32.6541187921206841 -36.2291247328148813 0 0 0
187       8    8   -0.1823940000000000   5.9592059125422709   32.6892217614174641 -35.0743677286661395 0 0 0
188       8    5    0.3300090000000000   5.3865593339194708   32.3534144929759506 -33.8858828369432956 0 0 0
189       8    9   -0.4278410000000000   4.2124018293112897   32.0505396886044593 -33.7179332187561229 0 0 0
190       8    7    0.1685680000000000   6.4080855122743818   32.3265653477537356 -32.7957047934401089 0 0 0
191       8    5    0.3300090000000000   6.9218955107848164   33.6863009112924843 -32.4693214167514839 0 0 0
192       8    9   -0.4278410000000000   6.5455709177593686   34.7308791151646332 -32.9887458707190078 0 0 0
193       8    8   -0.1823940000000000   7.8708198194058134   33.6050993099895763 -31.4948024322499052 0 0 0
194       8    4    0.2337370000000000   8.4328967909691848   34.8617520586151954 -31.0920878130593223 0 0 0
195       8    6   -0.1186820000000000   9.4991242076931464   35.2992568329948142 -32.0798327604628355 0 0 0
196       8    1    0.0285690000000000   4.4379853845734276   33.9999139886054920 -37.7746991493208526 0 0 0
197       8    1    0.0285690000000000   6.0481596849251087   34.3870407711966450 -37.1252728320318042 0 0 0
198       8    1    0.0285690000000000   4.6118618962367179   34.7589661468180182 -36.1755404767981119 0 0 0
199       8    3   -0.0094320000000000   5.5563515527981009   31.9425736645978731 -36.9295129798394228 0 0 0
200       8    3   -0.0094320000000000   4.0970381555510844   32.3052211105984526 -36.0018223664749115 0 0 0
201       8    2    0.0140440000000000   7.2305641378570940   31.6701059278496153 -33.1016462765356962 0 0 0
202       8    2    0.0140440000000000   5.9431812528253261   31.9015599565144399 -31.8990621470286975 0 0 0
203       8    3   -0.0094320000000000   8.8793849497008068   34.7160296545412024 -30.1032443881110900 0 0 0
204       8    3   -0.0094320000000000   7.6488401389548271   35.6202615680448389 -30.9814115579869238 0 0 0
205       8    1    0.0285690000000000   10.2784375114241548  34.5352144407047277 -32.1650602443602693 0 0 0
206       8    1    0.0285690000000000   9.9552779326774541   36.2415237572354343 -31.7658718604050918 0 0 0
207       8    1    0.0285690000000000   9.0805225312020958   35.4344285639232126 -33.0823015993285168 0 0 0
208       9    6   -0.1186820000000000   46.6096191492464200 -49.9806483101153276  4.5496155118688764  0 0 0
209       9    4    0.2337370000000000   45.4596770045777276 -49.0301045587305495  4.8206267531820908  0 0 0
210       9    8   -0.1823940000000000   45.8325194448586259 -48.0911788317424680  5.8390064084311977  0 0 0
211       9    5    0.3300090000000000   45.8101205529979012 -46.7750899567605387  5.4917380306709669  0 0 0
212       9    9   -0.4278410000000000   45.5247600255658540 -46.3316154691846123  4.3869820326094189  0 0 0
213       9    7    0.1685680000000000   46.1116447512766996 -45.9113697173130149  6.6731758335285800  0 0 0
214       9    5    0.3300090000000000   47.5253522739607277 -46.0441327286977540  7.1239669703254762  0 0 0
215       9    9   -0.4278410000000000   48.3784815755175686 -46.7427417612345195  6.5885405970647088  0 0 0
216       9    8   -0.1823940000000000   47.7410190158083196 -45.2634578326768846  8.2197647883026885  0 0 0
217       9    4    0.2337370000000000   49.0776545350473654 -45.3054130744463777  8.7383503294592355  0 0 0
218       9    6   -0.1186820000000000   49.2683760153268580 -46.5435651920324105  9.5953777873491148  0 0 0
219       9    1    0.0285690000000000   46.3167684321792095 -50.7299645874669594  3.8077190225193607  0 0 0
220       9    1    0.0285690000000000   46.9177045391229655 -50.4952465348337540  5.4654482513258538  0 0 0
221       9    1    0.0285690000000000   47.4835486025970681 -49.4385412462151166  4.1745316009426796  0 0 0
222       9    3   -0.0094320000000000   44.6011708651123939 -49.5889011721466773  5.2050132027806457  0 0 0
223       9    3   -0.0094320000000000   45.1513872661777000 -48.5466971531286404  3.8886578820783004  0 0 0
224       9    2    0.0140440000000000   45.4247884486289379 -46.1754241656153610  7.4852804563727116  0 0 0
225       9    2    0.0140440000000000   45.9284270625171160 -44.8681575740520060  6.3923319425884957  0 0 0
226       9    3   -0.0094320000000000   49.2183693577902588 -44.4065134744805121  9.3471005753250225  0 0 0
227       9    3   -0.0094320000000000   49.8114615333527624 -45.2600196354935065  7.9248409762013488  0 0 0
228       9    1    0.0285690000000000   48.5359349283289845 -46.5625227044623600  10.4087192859828885 0 0 0
229       9    1    0.0285690000000000   50.2749979638439797 -46.5696987001523013  10.0202823844258599 0 0 0
230       9    1    0.0285690000000000   49.1147659052725558 -47.4575448681263694  9.0127221265370885  0 0 0
231       10   6   -0.1186820000000000   32.0414255243694441 -23.2769720826132129 -34.5793457489726279 0 0 0
232       10   4    0.2337370000000000   32.8513878100334864 -22.5968736955395677 -35.6659803388885379 0 0 0
233       10   8   -0.1823940000000000   33.3178371637446773 -21.3224036074169305 -35.2013932930046849 0 0 0
234       10   5    0.3300090000000000   34.6667541907256194 -21.1415909711878562 -35.1711177533597450 0 0 0
235       10   9   -0.4278410000000000   35.5073617415700653 -21.9758040622422826 -35.4810427945821658 0 0 0
236       10   7    0.1685680000000000   35.0036419612302225 -19.7409126158036194 -34.7744673392133166 0 0 0
237       10   5    0.3300090000000000   34.6649580608393606 -19.4598067983920160 -33.3512033577490996 0 0 0
238       10   9   -0.4278410000000000   34.1979193739145941 -20.2705065879284376 -32.5592397835481151 0 0 0
239       10   8   -0.1823940000000000   34.9605339294823523 -18.1645965857565059 -33.0482120944087399 0 0 0
240       10   4    0.2337370000000000   34.6821984054193990 -17.7817998363505936 -31.6942247599816938 0 0 0
241       10   6   -0.1186820000000000   33.2052431949190279 -17.4725237601406356 -31.5303863403117326 0 0 0
242       10   1    0.0285690000000000   31.6419596354841239 -24.2289727745338936 -34.9423450783103391 0 0 0
243       10   1    0.0285690000000000   31.2066224624948347 -22.6455314845361926 -34.2586213096404748 0 0 0
244       10   1    0.0285690000000000   32.6583692077568344 -23.4695162940066844 -33.6958142460893271 0 0 0
245       10   3   -0.0094320000000000   32.2149971983344798 -22.4030060888621669 -36.5345779037726004 0 0 0
246       10   3   -0.0094320000000000   33.6635563822750044 -23.2550474427737655 -35.9892152194550761 0 0 0
247       10   2    0.0140440000000000   34.4706993464163247 -19.0505134480577247 -35.4380420592645891 0 0 0
248       10   2    0.0140440000000000   36.0801333122972778 -19.5928403203242638 -34.9157987044133193 0 0 0
249       10   3   -0.0094320000000000   35.2754115999418119 -16.8867706908357746 -31.4811075421799949 0 0 0
250       10   3   -0.0094320000000000   35.0122721824046579 -18.5593812223302592 -30.9951187359591316 0 0 0
251       10   1    0.0285690000000000   32.8996069632888819 -16.6851350929874442 -32.2267765379406441 0 0 0
252       10   1    0.0285690000000000   32.9875443217266735 -17.1504491369063956 -30.5089218221911516 0 0 0
253       10   1    0.0285690000000000   32.5885297806937473 -18.3484236500914619 -31.7560109861258333 0 0 0
254       11   6   -0.1186820000000000  -17.7300574427650517 -31.1844794336301518 -20.0520928142206891 0 0 0
255       11   4    0.2337370000000000  -18.8948165924829787 -31.0943977861652279 -19.0853617904925805 0 0 0
256       11   8   -0.1823940000000000  -19.8751182522281198 -32.0905446541139767 -19.4084565160403777 0 0 0
257       11   5    0.3300090000000000  -20.1570630404694278 -33.0043958936120703 -18.4396582853177122 0 0 0
258       11   9   -0.4278410000000000  -19.6316080249649438 -33.0614115539166775 -17.3354697560523441 0 0 0
259       11   7    0.1685680000000000  -21.2670434178050272 -33.9068963869896081 -18.8711223018743688 0 0 0
260       11   5    0.3300090000000000  -20.8595195862734037 -34.8126322877206107 -19.9815161197429525 0 0 0
261       11   9   -0.4278410000000000  -19.7415385989563319 -34.8641041353261514 -20.4815508661372654 0 0 0
262       11   8   -0.1823940000000000  -21.9123502041469997 -35.5908425200544229 -20.3592393240325862 0 0 0
263       11   4    0.2337370000000000  -21.6320354867233497 -36.5130922004636034 -21.4213903976943527 0 0 0
264       11   6   -0.1186820000000000  -21.6897825656805807 -35.8022013853447589 -22.7612377534597563 0 0 0
265       11   1    0.0285690000000000  -16.9997414690383124 -30.3969974027482621 -19.8419560576603047 0 0 0
266       11   1    0.0285690000000000  -18.0702804664706598 -31.0804127305339577 -21.0874168999287868 0 0 0
267       11   1    0.0285690000000000  -17.2313579826901524 -32.1557005578277142 -19.9724117321912544 0 0 0
268       11   3   -0.0094320000000000  -19.3862116728962199 -30.1223181573947869 -19.1884707599141038 0 0 0
269       11   3   -0.0094320000000000  -18.5295796952709111 -31.1748338943652712 -18.0570508935783600 0 0 0
270       11   2    0.0140440000000000  -22.1220516512601613 -33.2916630043542909 -19.1735442855578597 0 0 0