LAMMPS data file via vdw_self_gen.py, on 2021-08-05 13:24:18.801240

4500 atoms
3 atom types
4000 bonds
2 bond types
6500 angles
3 angle types
3000 dihedrals
1 dihedral types

-37.4882667759693504  37.4882667759693504 xlo xhi
-37.4882667759693504  37.4882667759693504 ylo yhi
-37.4882667759693504  37.4882667759693504 zlo zhi

Masses

1  32.066000
2  1.007940
3  12.011000

Atoms

1         0    3   -0.2471221111111111  -13.0640940451015233  4.0149252836799967  -13.6949278490830775 0 0 0
2         0    1   -0.1727931111111111  -11.5634346081123418  4.8086253748852359  -13.0392233598532847 0 0 0
3         0    2    0.1111728888888889  -13.9719327761172476  4.4845276613870357  -13.2621517255276586 0 0 0
4         0    2    0.1111728888888889  -13.0373877875497985  2.9210631069763235  -13.5084733710336522 0 0 0
5         0    2    0.1111728888888889  -13.0910748830844987  4.1717223840417184  -14.7927098617795387 0 0 0
6         0    3   -0.2471221111111111  -11.8990156083259233  4.3358575805047836  -11.3141876420224072 0 0 0
7         0    2    0.1111728888888889  -12.8473649045063478  4.7940367619697204  -10.9639095741874151 0 0 0
8         0    2    0.1111728888888889  -11.0780601595737593  4.7266669198149156  -10.6787706911373128 0 0 0
9         0    2    0.1111728888888889  -11.9124355555366215  3.2308417027096135  -11.2104462532837150 0 0 0
10        1    3   -0.2471221111111111  -20.3270368056696533 -29.0288133942927331 -27.9262296508326493 0 0 0
11        1    1   -0.1727931111111111  -21.6808057237476071 -28.2778267035361921 -28.8828986973438084 0 0 0
12        1    2    0.1111728888888889  -19.3488052072513135 -28.8158453985436189 -28.4055002429228622 0 0 0
13        1    2    0.1111728888888889  -20.4970161154685542 -30.1187935163632581 -27.8034969089443891 0 0 0
14        1    2    0.1111728888888889  -20.3171596991666270 -28.5707954125056496 -26.9160016494256311 0 0 0
15        1    3   -0.2471221111111111  -21.3532086317963135 -29.2588394643920218 -30.3802851976446071 0 0 0
16        1    2    0.1111728888888889  -20.3393227371021261 -29.0382046788016730 -30.7744234457602523 0 0 0
17        1    2    0.1111728888888889  -22.0900942828543023 -28.9679602887489587 -31.1567150608274019 0 0 0
18        1    2    0.1111728888888889  -21.4878846767902871 -30.3407885746013619 -30.1723165780838656 0 0 0
19        2    3   -0.2471221111111111   3.9563125185603489   11.8967415601041075 -2.9908176491875471  0 0 0
20        2    1   -0.1727931111111111   2.9570642466361741   12.3093232061832403 -4.4547733295874590  0 0 0
21        2    2    0.1111728888888889   4.3444092688488256   12.8204740614119803 -2.5132279652086891  0 0 0
22        2    2    0.1111728888888889   4.7751700510713029   11.1990703757793746 -3.2642042220344853  0 0 0
23        2    2    0.1111728888888889   3.3035806328673392   11.3828523333861931 -2.2557682686947027  0 0 0
24        2    3   -0.2471221111111111   4.3367436695120443   13.0896157105675233 -5.3489212595155031  0 0 0
25        2    2    0.1111728888888889   4.7119348775384422   13.9718426598114327 -4.7895497888920193  0 0 0
26        2    2    0.1111728888888889   3.9608522744787575   13.4445101011240951 -6.3303539473201251  0 0 0
27        2    2    0.1111728888888889   5.1421992364561069   12.3503703195400796 -5.5406503455288156  0 0 0
28        3    3   -0.2471221111111111   12.8369790835232287  28.5626247174612935 -11.3505127365190965 0 0 0
29        3    1   -0.1727931111111111   12.4801258106000965  28.0320526198673683 -13.0543425251596226 0 0 0
30        3    2    0.1111728888888889   11.9445344728498100  29.0442159070308747 -10.8992863290373005 0 0 0
31        3    2    0.1111728888888889   13.7213565118555856  29.2330560387813811 -11.3302305805870969 0 0 0
32        3    2    0.1111728888888889   13.0787449362765251  27.6632693720192222 -10.7478952137343331 0 0 0
33        3    3   -0.2471221111111111   12.1546975633258718  29.7173672328055538 -13.6590600907991817 0 0 0
34        3    2    0.1111728888888889   11.2861041268250109  30.1591516960135273 -13.1276833837111955 0 0 0
35        3    2    0.1111728888888889   11.8993451132659551  29.6585973414035813 -14.7369263701274633 0 0 0
36        3    2    0.1111728888888889   13.0629127093859498  30.3475325064026613 -13.5588630982327754 0 0 0
37        4    3   -0.2471221111111111   19.5361520608400454  4.2266084209900940  -4.5013906143455564  0 0 0
38        4    1   -0.1727931111111111   20.8313761177897305  2.9484337671920837  -4.4779139347012373  0 0 0
39        4    2    0.1111728888888889   19.8131331837163920  5.0467649343924093  -5.1960973718295458  0 0 0
40        4    2    0.1111728888888889   19.3442633717607606  4.6032534925029278  -3.4750718630267832  0 0 0
41        4    2    0.1111728888888889   18.5984081119706204  3.7669633448634028  -4.8752907802338177  0 0 0
42        4    3   -0.2471221111111111   22.1176139556182036  4.0661829864724774  -3.8390859999360143  0 0 0
43        4    2    0.1111728888888889   22.3049996155519175  4.8921083113746473  -4.5565281556785218  0 0 0
44        4    2    0.1111728888888889   23.0592464308639791  3.4898539742136521  -3.7312544591361059  0 0 0
45        4    2    0.1111728888888889   21.8361410317351279  4.4480975439676440  -2.8356335970817579  0 0 0
46        5    3   -0.2471221111111111  -28.3733958228232126 -20.0662381792975673 -29.9250796089645767 0 0 0
47        5    1   -0.1727931111111111  -30.0002463810841959 -19.8953785723718930 -29.1275514191135159 0 0 0
48        5    2    0.1111728888888889  -28.3890333346408354 -20.8936404111891463 -30.6647780222959767 0 0 0
49        5    2    0.1111728888888889  -27.5805605950433232 -20.2109224237270588 -29.1618681512380320 0 0 0
50        5    2    0.1111728888888889  -28.1515894436026244 -19.1265742750547716 -30.4712227412112817 0 0 0
51        5    3   -0.2471221111111111  -29.9679541657224533 -21.5583529616545526 -28.3890762222944275 0 0 0
52        5    2    0.1111728888888889  -29.9280243365606680 -22.3341172451803409 -29.1819095338100567 0 0 0
53        5    2    0.1111728888888889  -30.9071583389832121 -21.7050867514949992 -27.8173951872332346 0 0 0
54        5    2    0.1111728888888889  -29.1199050133249386 -21.6510230598764402 -27.6789865456243618 0 0 0
55        6    3   -0.2471221111111111  -29.8428839503143166 -4.6763273900337836  -5.1908854022225812  0 0 0
56        6    1   -0.1727931111111111  -30.1744311617846890 -4.3042145314594151  -3.4406010182295663  0 0 0
57        6    2    0.1111728888888889  -29.0365161509758920 -5.4337926698032213  -5.2803842845280009  0 0 0
58        6    2    0.1111728888888889  -29.5980606584544788 -3.7465363253248944  -5.7454691109180507  0 0 0
59        6    2    0.1111728888888889  -30.7631682285079187 -5.1056181098351185  -5.6372316455159837  0 0 0
60        6    3   -0.2471221111111111  -28.5039001820266691 -3.6587352546758112  -3.1172514058722633  0 0 0
61        6    2    0.1111728888888889  -27.7438286533290288 -4.4512992726599414  -3.2788769711770440  0 0 0
62        6    2    0.1111728888888889  -28.4492931717199333 -3.3476419181198755  -2.0539106794934332  0 0 0
63        6    2    0.1111728888888889  -28.3057852746725516 -2.7641013040572764  -3.7436562580124240  0 0 0
64        7    3   -0.2471221111111111  -12.4827245714953587 -3.1352350605191246  -13.3452849885798113 0 0 0
65        7    1   -0.1727931111111111  -12.4170691850238306 -4.9492933791729588  -13.4747791759013946 0 0 0
66        7    2    0.1111728888888889  -11.6049110397197666 -2.7545179402776987  -12.7827100108330729 0 0 0
67        7    2    0.1111728888888889  -13.4392761163992667 -2.8137446860675297  -12.8830447487943527 0 0 0
68        7    2    0.1111728888888889  -12.4404830006799489 -2.7101141463362808  -14.3689678016226949 0 0 0
69        7    3   -0.2471221111111111  -12.5069841571864639 -5.2199228791988990  -11.6774068732337781 0 0 0
70        7    2    0.1111728888888889  -11.6285317484595510 -4.7667368315688998  -11.1724979244762910 0 0 0
71        7    2    0.1111728888888889  -12.4819609862923997 -6.3124097939430586  -11.4868795207848535 0 0 0
72        7    2    0.1111728888888889  -13.4628595226514864 -4.8262920588848921  -11.2732292836818218 0 0 0
73        8    3   -0.2471221111111111  -3.5790689851628983  -4.0019299936391164  -5.3536495979985812  0 0 0
74        8    1   -0.1727931111111111  -5.1674710526082590  -3.5407319488964792  -4.5945961127547221  0 0 0
75        8    2    0.1111728888888889  -3.4732523604642518  -5.1061880723836932  -5.3911951072470670  0 0 0
76        8    2    0.1111728888888889  -2.7366365434242406  -3.5256214457064639  -4.8100958228552848  0 0 0
77        8    2    0.1111728888888889  -3.5673436734543009  -3.6239741178272138  -6.3964585530352149  0 0 0
78        8    3   -0.2471221111111111  -4.7828953881646585  -4.3093278307346257  -2.9904657715295482  0 0 0
79        8    2    0.1111728888888889  -4.6350399907559492  -5.4028898837370756  -3.1098395223719590  0 0 0
80        8    2    0.1111728888888889  -5.6477171150536183  -4.1555316772175859  -2.3130555458433957  0 0 0
81        8    2    0.1111728888888889  -3.8988416668811632  -3.8220718058270764  -2.5289107423335753  0 0 0
82        9    3   -0.2471221111111111   5.2008555327701753   21.3701556924666534  3.5211487251069524  0 0 0
83        9    1   -0.1727931111111111   4.7693531298573006   19.7250845168408766  4.1687855532796618  0 0 0
84        9    2    0.1111728888888889   5.2549542493967003   22.1100631618671635  4.3467412356015096  0 0 0
85        9    2    0.1111728888888889   4.4788976448496323   21.6799078750843108  2.7370292497507371  0 0 0
86        9    2    0.1111728888888889   6.2048117357026591   21.3091948951880781  3.0533941233246189  0 0 0
87        9    3   -0.2471221111111111   3.1487074038753553   20.2491334146560291  4.8096852384529054  0 0 0
88        9    2    0.1111728888888889   3.2737894456608729   21.0281090807031603  5.5904160942727614  0 0 0
89        9    2    0.1111728888888889   2.6589209867923014   19.3721864913514565  5.2803526893644692  0 0 0
90        9    2    0.1111728888888889   2.4979766470643501   20.5974987516890451  3.9807138668157140  0 0 0
91        10   3   -0.2471221111111111  -4.5488714596211786  -13.2101442168515835 -19.7659084879788693 0 0 0
92        10   1   -0.1727931111111111  -3.1887917944562378  -13.2729000042805509 -20.9734398429957736 0 0 0
93        10   2    0.1111728888888889  -5.5263781129764684  -13.3391146872652424 -20.2756536088063548 0 0 0
94        10   2    0.1111728888888889  -4.5086483506776753  -12.2650851341664389 -19.1851689681068045 0 0 0
95        10   2    0.1111728888888889  -4.4233374711426263  -14.0516640894289466 -19.0542033766483101 0 0 0
96        10   3   -0.2471221111111111  -3.7514164423256062  -11.8062571875328182 -21.8922894371036065 0 0 0
97        10   2    0.1111728888888889  -4.7566819101340139  -11.9836581699366533 -22.3281328784608313 0 0 0
98        10   2    0.1111728888888889  -3.0455901156415388  -11.6260305757916065 -22.7288192064363912 0 0 0
99        10   2    0.1111728888888889  -3.7385511189939868  -10.9099462626542234 -21.2377180733098250 0 0 0
100       11   3   -0.2471221111111111  -4.9308973513485395  -19.8068770243348276  4.5605337972771096  0 0 0
101       11   1   -0.1727931111111111  -4.2234020237189123  -20.3903249682168131  2.9886159190270729  0 0 0
102       11   2    0.1111728888888889  -4.1235601138825411  -19.5513014505646154  5.2780854949914993  0 0 0
103       11   2    0.1111728888888889  -5.6276966134411630  -20.5639010514848373  4.9769450949921961  0 0 0
104       11   2    0.1111728888888889  -5.5124212072363274  -18.8836690572885466  4.3606445821711697  0 0 0
105       11   3   -0.2471221111111111  -3.4016375983713729  -21.8331367082466095  3.7335117070171795  0 0 0
106       11   2    0.1111728888888889  -2.6474890188891571  -21.5074656141620579  4.4799616606260857  0 0 0
107       11   2    0.1111728888888889  -2.8695223083446848  -22.3847684887354461  2.9316325472464975  0 0 0
108       11   2    0.1111728888888889  -4.1516405407366612  -22.5198895168130235  4.1783359726205251  0 0 0
109       12   3   -0.2471221111111111  -21.4824758818265025  21.9373602625239386  21.1721750766292089 0 0 0
110       12   1   -0.1727931111111111  -19.8556851978561539  21.5357263939946861  20.4621544684793655 0 0 0
111       12   2    0.1111728888888889  -21.5828223260395617  21.4964179096411492  22.1858284495175937 0 0 0
112       12   2    0.1111728888888889  -22.2949948706299317  21.6016032218353828  20.4946110127489582 0 0 0
113       12   2    0.1111728888888889  -21.5575303627744397  23.0395307964045735  21.2723029090980305 0 0 0
114       12   3   -0.2471221111111111  -20.1408816324625732  19.7383749594236662  20.4700940675408027 0 0 0
115       12   2    0.1111728888888889  -20.2880369765867989  19.3735776026003172  21.5080042119417456 0 0 0
116       12   2    0.1111728888888889  -19.2391022420837743  19.2396957227813452  20.0595244144612295 0 0 0
117       12   2    0.1111728888888889  -20.9998043895870481  19.4790470106417359  19.8166392694298352 0 0 0
118       13   3   -0.2471221111111111   20.4485415408382671  22.0826661498149619  20.5773696082522548 0 0 0
119       13   1   -0.1727931111111111   21.0174396154277154  21.1424013732088625  22.0279364245010818 0 0 0
120       13   2    0.1111728888888889   19.4978529678650254  21.6605937916364226  20.1900210707828123 0 0 0
121       13   2    0.1111728888888889   21.2371786247929464  22.1061042444153202  19.7966550869751288 0 0 0
122       13   2    0.1111728888888889   20.2523562383533040  23.1277029358452140  20.8933570868529657 0 0 0
123       13   3   -0.2471221111111111   21.2110231313767201  19.5808074215142049  21.1137034261448342 0 0 0
124       13   2    0.1111728888888889   20.2340230850722307  19.2455013380862354  20.7074645621285605 0 0 0
125       13   2    0.1111728888888889   21.5694938751373293  18.8044242086114330  21.8202317855123056 0 0 0
126       13   2    0.1111728888888889   21.9734248009832562  19.6911324167141402  20.3145948286968405 0 0 0
127       14   3   -0.2471221111111111   13.5493798599771029 -21.5424795077752762  29.5586373494981451 0 0 0
128       14   1   -0.1727931111111111   11.8516492699826657 -21.8946712132496089  29.0058636126110052 0 0 0
129       14   2    0.1111728888888889   13.5366807989862075 -20.9367832720128568  30.4886715056629569 0 0 0
130       14   2    0.1111728888888889   14.1249516275852418 -21.0446249732564787  28.7506330419653686 0 0 0
131       14   2    0.1111728888888889   14.0492338225077003 -22.5058967733817248  29.7875736554302613 0 0 0
132       14   3   -0.2471221111111111   11.4227125734566766 -20.1444431103980222  28.7517236486897936 0 0 0
133       14   2    0.1111728888888889   11.4839759257341143 -19.5870350368106330  29.7096027203200990 0 0 0
134       14   2    0.1111728888888889   10.3742427284039582 -20.0900891707999989  28.3936578401219961 0 0 0
135       14   2    0.1111728888888889   12.0719737212743734 -19.6953108221621882  27.9715040574858236 0 0 0
136       15   3   -0.2471221111111111  -19.8774362261477755 -29.5355538964578450 -11.6368669640834721 0 0 0
137       15   1   -0.1727931111111111  -19.9382586743613963 -28.9591597174636597 -13.3619632912533142 0 0 0
138       15   2    0.1111728888888889  -20.4346180575036342 -30.4891783761819752 -11.5266785514539478 0 0 0
139       15   2    0.1111728888888889  -20.2630724574392858 -28.7516536862260885 -10.9521786293545276 0 0 0
140       15   2    0.1111728888888889  -18.8181564956053400 -29.7283364757722630 -11.3700337328793832 0 0 0
141       15   3   -0.2471221111111111  -21.7484889801974610 -28.7733510315766523 -13.3823003259824418 0 0 0
142       15   2    0.1111728888888889  -22.2409312916394981 -29.7532790861705010 -13.2113299998391192 0 0 0
143       15   2    0.1111728888888889  -22.0513447644457266 -28.4116800155745395 -14.3862559724785282 0 0 0
144       15   2    0.1111728888888889  -22.0690269325066524 -28.0156751463619251 -12.6371928605833190 0 0 0
145       16   3   -0.2471221111111111  -29.8686374458014647 -11.4260402281621491  20.4637536370681943 0 0 0
146       16   1   -0.1727931111111111  -29.6723725471943638 -13.1374931165187316  19.8769861717886229 0 0 0
147       16   2    0.1111728888888889  -28.9054785819928810 -10.8789328130264611  20.3931051610017882 0 0 0
148       16   2    0.1111728888888889  -30.2742316578141306 -11.4143260659102275  21.4968891905095454 0 0 0
149       16   2    0.1111728888888889  -30.5997651355715732 -10.9128674486231141  19.8060723743796530 0 0 0
150       16   3   -0.2471221111111111  -28.4624932645812194 -13.5861248239733712  21.1602608639219127 0 0 0
151       16   2    0.1111728888888889  -27.5481451465611009 -12.9640106545836531  21.0657581971996350 0 0 0
152       16   2    0.1111728888888889  -28.1696419727621645 -14.6453323873159800  21.0093570911468994 0 0 0
153       16   2    0.1111728888888889  -28.9171016795065938 -13.4996727897943760  22.1691511928305367 0 0 0
154       17   3   -0.2471221111111111  -13.1821912510675183  5.2784605426513478   21.0965434130629532 0 0 0
155       17   1   -0.1727931111111111  -13.5068498621000046  3.4883436188359687   21.1408733482329545 0 0 0
156       17   2    0.1111728888888889  -12.9514148899528578  5.6052772055338069   20.0612048849413327 0 0 0
157       17   2    0.1111728888888889  -12.3678824175715327  5.5425827051542029   21.8030514209193598 0 0 0
158       17   2    0.1111728888888889  -14.1003480705656425  5.8082746794776945   21.4232293156177320 0 0 0
159       17   3   -0.2471221111111111  -11.8415015678307274  3.0311667239343594   20.5668728530742086 0 0 0
160       17   2    0.1111728888888889  -11.6569654981651070  3.4360706340224993   19.5500205839182080 0 0 0
161       17   2    0.1111728888888889  -11.7838010891009120  1.9249995876826747   20.5075482255481631 0 0 0
162       17   2    0.1111728888888889  -11.0738456815537631  3.3730910786767936   21.2919898345318899 0 0 0
163       18   3   -0.2471221111111111   13.3383711123666870  3.6343421887969094  -13.3855009345255329 0 0 0
164       18   1   -0.1727931111111111   12.6986524627581456  5.2953918821000263  -13.0066065910462410 0 0 0
165       18   2    0.1111728888888889   12.5099783766293360  2.9583021344504905  -13.6833734711865560 0 0 0
166       18   2    0.1111728888888889   13.9082773078382473  3.2319544162833060  -12.5221910439910395 0 0 0
167       18   2    0.1111728888888889   14.0356295545756655  3.7159766232267546  -14.2443403418559207 0 0 0
168       18   3   -0.2471221111111111   11.6601218790664181  4.7316071348006261  -11.6226003741709594 0 0 0
169       18   2    0.1111728888888889   10.8900456825010501  4.0173012881675003  -11.9814026646446372 0 0 0
170       18   2    0.1111728888888889   11.1353051182809999  5.6119705241873481  -11.1983573303549999 0 0 0
171       18   2    0.1111728888888889   12.2884188338915017  4.2914205839563859  -10.8204275761321718 0 0 0
172       19   3   -0.2471221111111111  -11.6246235210412685 -29.6698196819059206  3.2932422822572209  0 0 0
173       19   1   -0.1727931111111111  -13.2876025081689235 -30.0957835202435326  3.8973471196824176  0 0 0
174       19   2    0.1111728888888889  -10.8911237898459916 -29.6954652629737907  4.1258965780535863  0 0 0
175       19   2    0.1111728888888889  -11.6373577953393745 -28.6827596893579511  2.7857352699221059  0 0 0
176       19   2    0.1111728888888889  -11.3182318126876211 -30.4313393979648481  2.5471521490925673  0 0 0
177       19   3   -0.2471221111111111  -13.3922214873978103 -28.6745166105727947  5.0291277802169843  0 0 0
178       19   2    0.1111728888888889  -12.5973204682187365 -28.7343927711357843  5.8014855275104988  0 0 0
179       19   2    0.1111728888888889  -14.3724357083138585 -28.7117182079162454  5.5470569377945864  0 0 0
180       19   2    0.1111728888888889  -13.3438832368944809 -27.7220722897145961  4.4612231314393540  0 0 0
181       20   3   -0.2471221111111111   11.2890006859272987 -11.9488500697778797  12.6571593990678775 0 0 0
182       20   1   -0.1727931111111111   12.7110437608243121 -11.6983634986392122  11.5494875484656347 0 0 0
183       20   2    0.1111728888888889   11.5789936747190012 -11.7541798339017589  13.7107249136494733 0 0 0
184       20   2    0.1111728888888889   10.8706833051904592 -12.9686621201961430  12.5267488588681815 0 0 0
185       20   2    0.1111728888888889   10.4992343399265042 -11.2201215493309832  12.3820912149537943 0 0 0
186       20   3   -0.2471221111111111   13.7098734140924723 -13.0184527657224169  12.3055139194236212 0 0 0
187       20   2    0.1111728888888889   13.9157741366565393 -12.7869663747590536  13.3713507821499764 0 0 0
188       20   2    0.1111728888888889   14.6826354319344539 -13.0680831183618320  11.7747358351540399 0 0 0
189       20   2    0.1111728888888889   13.2075615786369713 -14.0011209972187896  12.1869878561754170 0 0 0
190       21   3   -0.2471221111111111   28.3472712983461115  3.9971010388936987  -28.1098637314188977 0 0 0
191       21   1   -0.1727931111111111   28.3671952332283581  5.0330681342148793  -29.6059460059046842 0 0 0
192       21   2    0.1111728888888889   29.2220432586602783  4.2276771241988884  -27.4667452243508485 0 0 0
193       21   2    0.1111728888888889   28.3088107614365043  2.9219707662849856  -28.3830461653727433 0 0 0
194       21   2    0.1111728888888889   27.4298578438243226  4.2339411773791618  -27.5330639863040325 0 0 0
195       21   3   -0.2471221111111111   29.9431705047687053  4.3606776491273394  -30.2191875586039735 0 0 0
196       21   2    0.1111728888888889   30.7626520955084537  4.5783315550401715  -29.5029013208613087 0 0 0
197       21   2    0.1111728888888889   30.1877641217279056  4.8625129762316188  -31.1777227728830120 0 0 0
198       21   2    0.1111728888888889   29.8491023142848135  3.2729863545985851  -30.4193906660859703 0 0 0
199       22   3   -0.2471221111111111   3.3226424713137139   29.9455203899307207  4.8372159643423203  0 0 0
200       22   1   -0.1727931111111111   3.8157888426713029   29.7236474100292014  3.0995548941084201  0 0 0
201       22   2    0.1111728888888889   4.1929022807981564   30.2598485363991543  5.4502725752142798  0 0 0
202       22   2    0.1111728888888889   2.8559810622557533   29.0179385516329305  5.2294302179794672  0 0 0
203       22   2    0.1111728888888889   2.5641657273897085   30.7535397275842541  4.8847177811957136  0 0 0
204       22   3   -0.2471221111111111   4.9971852702656774   28.3872173065167743  3.4602892592484507  0 0 0
205       22   2    0.1111728888888889   5.8092934300493129   28.7553584605537225  4.1213049188338973  0 0 0
206       22   2    0.1111728888888889   5.4580702792955611   28.0611175363892613  2.5054602492292162  0 0 0
207       22   2    0.1111728888888889   4.4722374119301378   27.5136795127494409  3.9000209158175805  0 0 0
208       23   3   -0.2471221111111111  -20.8419432495455297  11.7829697019359028  21.9554016846737596 0 0 0
209       23   1   -0.1727931111111111  -19.7342833461825649  11.9557331484660327  20.5218294723925183 0 0 0
210       23   2    0.1111728888888889  -21.8337902148169682  11.4010901634359989  21.6354011481789996 0 0 0
211       23   2    0.1111728888888889  -20.9273715598693428  12.7474850474926775  22.4980112221689339 0 0 0
212       23   2    0.1111728888888889  -20.4002071896981860  11.0401286041270890  22.6507397323431867 0 0 0
213       23   3   -0.2471221111111111  -20.7776310786261860  13.1923549569706680  19.6887242960579520 0 0 0
214       23   2    0.1111728888888889  -21.7718403251228310  12.7618334899651309  19.4475013383446118 0 0 0
215       23   2    0.1111728888888889  -20.2892919181735323  13.4751980449405018  18.7337483058068415 0 0 0
216       23   2    0.1111728888888889  -20.8649749978116255  14.1080071705740391  20.3099766798799983 0 0 0
217       24   3   -0.2471221111111111  -13.5026855025973216 -20.6058652058333820 -21.6755908496892822 0 0 0
218       24   1   -0.1727931111111111  -11.6880578535411637 -20.6959226785922361 -21.7800087824458934 0 0 0
219       24   2    0.1111728888888889  -13.8119734449783103 -19.7764808117948476 -21.0059228547671246 0 0 0
220       24   2    0.1111728888888889  -13.9210070124224270 -21.5795871848885739 -21.3456126987118324 0 0 0
221       24   2    0.1111728888888889  -13.9007118127681402 -20.3910110870098684 -22.6884340792842494 0 0 0
222       24   3   -0.2471221111111111  -11.4643083922011648 -21.0436772728975257 -20.0077573489326923 0 0 0
223       24   2    0.1111728888888889  -11.8444808526896228 -20.1993159506643387 -19.3957833850234636 0 0 0
224       24   2    0.1111728888888889  -10.3783997257314518 -21.1471085990430332 -19.8063651473514142 0 0 0
225       24   2    0.1111728888888889  -11.9531757309784705 -22.0023650891229998 -19.7358587336408426 0 0 0
226       25   3   -0.2471221111111111  -30.0150902139555349 -29.6783278728909323  21.7076474240674315 0 0 0
227       25   1   -0.1727931111111111  -29.8018898408518638 -29.7103264761321455  19.9006032497044956 0 0 0
228       25   2    0.1111728888888889  -30.1986664324889382 -28.6413243367828763  22.0582414426820712 0 0 0
229       25   2    0.1111728888888889  -29.1361974333892704 -30.1335017035846491  22.2100190219112150 0 0 0
230       25   2    0.1111728888888889  -30.9061929909844402 -30.2866536466208167  21.9651629332844500 0 0 0
231       25   3   -0.2471221111111111  -28.3200864342398617 -28.6539845322177982  19.9171133853884292 0 0 0
232       25   2    0.1111728888888889  -28.5622198261543332 -27.6525524512771099  20.3300231606212165 0 0 0
233       25   2    0.1111728888888889  -27.9775111568793164 -28.5162466752673112  18.8711091061887544 0 0 0
234       25   2    0.1111728888888889  -27.5000131028419048 -29.1449497370118600  20.4814141559987277 0 0 0
235       26   3   -0.2471221111111111  -13.6215904444367446 -12.1593902732413355  28.5232251091129747 0 0 0
236       26   1   -0.1727931111111111  -11.8366611880699324 -12.0490838680167762  28.1859611108383064 0 0 0
237       26   2    0.1111728888888889  -13.8840940454580775 -11.5631338380554798  29.4218701173060246 0 0 0
238       26   2    0.1111728888888889  -13.9317930357910313 -13.2200064709321179  28.6275351839525705 0 0 0
239       26   2    0.1111728888888889  -14.1677362100415749 -11.7292891608467933  27.6588314027910904 0 0 0
240       26   3   -0.2471221111111111  -11.3500368474633593 -12.8188456677444069  29.7615675800143116 0 0 0
241       26   2    0.1111728888888889  -11.6914768526099060 -12.1999736577266447  30.6173744699153545 0 0 0
242       26   2    0.1111728888888889  -10.2425140597125086 -12.8684171323820564  29.7988561105063958 0 0 0
243       26   2    0.1111728888888889  -11.7388976443249398 -13.8566602589624708  29.8226463473484138 0 0 0
244       27   3   -0.2471221111111111   11.3123147753012567 -12.0243949392586327 -12.0977679172540764 0 0 0
245       27   1   -0.1727931111111111   12.3160636907062919 -11.9516637168412814 -13.6140413892599863 0 0 0
246       27   2    0.1111728888888889   11.8498944655178651 -11.5448159835574558 -11.2533717840824572 0 0 0
247       27   2    0.1111728888888889   11.0346160170518122 -13.0738577999034593 -11.8664152384411832 0 0 0
248       27   2    0.1111728888888889   10.3758664959011302 -11.4556429357728149 -12.2710434846010159 0 0 0
249       27   3   -0.2471221111111111   13.6742467725620909 -12.9508036734250354 -12.9292565425975639 0 0 0
250       27   2    0.1111728888888889   14.1298486993612471 -12.4393558877749033 -12.0558509543680934 0 0 0
251       27   2    0.1111728888888889   14.4574435363128835 -13.0560925669640167 -13.7076982990235781 0 0 0
252       27   2    0.1111728888888889   13.3145058751934222 -13.9681728244104786 -12.6693547182801165 0 0 0
253       28   3   -0.2471221111111111  -30.2526403228303771 -12.1769831355998406  4.8591962884377358  0 0 0
254       28   1   -0.1727931111111111  -28.4694373973193464 -11.8352905620077173  4.9829721721988918  0 0 0
255       28   2    0.1111728888888889  -30.4459578498561392 -13.2663010013372968  4.9486817561396785  0 0 0
256       28   2    0.1111728888888889  -30.6624227718303999 -11.7621026262898969  3.9147570549842157  0 0 0
257       28   2    0.1111728888888889  -30.7647943883821178 -11.6707258389369031  5.7029026392579425  0 0 0
258       28   3   -0.2471221111111111  -28.0409961419792708 -12.7945979890142052  3.4970248063366980  0 0 0
259       28   2    0.1111728888888889  -28.3111949334863375 -13.8624740509793831  3.6334894686118018  0 0 0
260       28   2    0.1111728888888889  -26.9430540153560543 -12.7383149906388446  3.3493433901735101  0 0 0
261       28   2    0.1111728888888889  -28.5273696107454349 -12.3580101331039440  2.5998991998288652  0 0 0
262       29   3   -0.2471221111111111   12.4667641169963233  3.8390162093873639   2.8711010524896516  0 0 0
263       29   1   -0.1727931111111111   11.4870332085969320  4.8921664336938528   3.9859503292845275  0 0 0
264       29   2    0.1111728888888889   12.4180458652829913  2.7789621477713795   3.1965309930320820  0 0 0
265       29   2    0.1111728888888889   13.5132670132012116  4.2042818897457064   2.8125721776743564  0 0 0
266       29   2    0.1111728888888889   12.0274972187613258  3.9027336212485477   1.8545267427411174  0 0 0
267       29   3   -0.2471221111111111   12.4939540900178798  4.5143606474288962   5.4540257188075447  0 0 0
268       29   2    0.1111728888888889   12.4446104611569819  3.4308761357684041   5.6898557295836447  0 0 0
269       29   2    0.1111728888888889   12.0742141906814915  5.0693768827677816   6.3178717035845340  0 0 0
270       29   2    0.1111728888888889   13.5394141632129070  4.8564928081574328   5.3058323287718636  0 0 0
271       30   3   -0.2471221111111111  -30.0558747612967920  11.5756526896952057 -12.8542360412039081 0 0 0