
                                 *****************
                                 * O   R   C   A *
                                 *****************

           --- An Ab Initio, DFT and Semiempirical electronic structure package ---

                  #######################################################
                  #                        -***-                        #
                  #          Department of theory and spectroscopy      #
                  #               Directorship: Frank Neese             #
                  #        Max Planck Institute fuer Kohlenforschung    #
                  #                Kaiser Wilhelm Platz 1               #
                  #                 D-45470 Muelheim/Ruhr               #
                  #                      Germany                        #
                  #                                                     #
                  #                  All rights reserved                #
                  #                        -***-                        #
                  #######################################################


                         Program Version 4.1.2  - RELEASE  -


 With contributions from (in alphabetic order):
   Daniel Aravena         : Magnetic Properties
   Michael Atanasov       : Ab Initio Ligand Field Theory
   Alexander A. Auer      : GIAO ZORA
   Ute Becker             : Parallelization
   Giovanni Bistoni       : ED, Open-shell LED
   Martin Brehm           : Molecular dynamics
   Dmytro Bykov           : SCF Hessian
   Vijay G. Chilkuri      : MRCI spin determinant printing
   Dipayan Datta          : RHF DLPNO-CCSD density
   Achintya Kumar Dutta   : EOM-CC, STEOM-CC
   Dmitry Ganyushin       : Spin-Orbit,Spin-Spin,Magnetic field MRCI
   Miquel Garcia          : C-PCM Hessian
   Yang Guo               : DLPNO-NEVPT2, CIM, IAO-localization
   Andreas Hansen         : Spin unrestricted coupled pair/coupled cluster methods
   Benjamin Helmich-Paris : CASSCF linear response (MC-RPA)
   Lee Huntington         : MR-EOM, pCC
   Robert Izsak           : Overlap fitted RIJCOSX, COSX-SCS-MP3, EOM
   Christian Kollmar      : KDIIS, OOCD, Brueckner-CCSD(T), CCSD density
   Simone Kossmann        : Meta GGA functionals, TD-DFT gradient, OOMP2, MP2 Hessian
   Martin Krupicka        : AUTO-CI
   Lucas Lang             : DCDCAS
   Dagmar Lenk            : GEPOL surface, SMD
   Dimitrios Liakos       : Extrapolation schemes; parallel MDCI
   Dimitrios Manganas     : ROCIS; embedding schemes
   Dimitrios Pantazis     : SARC Basis sets
   Taras Petrenko         : DFT Hessian,TD-DFT gradient, ASA, ECA, R-Raman, ABS, FL, XAS/XES, NRVS
   Peter Pinski           : DLPNO-MP2, DLPNO-MP2 Gradient
   Christoph Reimann      : Effective Core Potentials
   Marius Retegan         : Local ZFS, SOC
   Christoph Riplinger    : Optimizer, TS searches, QM/MM, DLPNO-CCSD(T), (RO)-DLPNO pert. Triples
   Tobias Risthaus        : Range-separated hybrids, TD-DFT gradient, RPA, STAB
   Michael Roemelt        : Restricted open shell CIS
   Masaaki Saitow         : Open-shell DLPNO
   Barbara Sandhoefer     : DKH picture change effects
   Avijit Sen             : IP-ROCIS
   Kantharuban Sivalingam : CASSCF convergence, NEVPT2, FIC-MRCI
   Bernardo de Souza      : ESD, SOC TD-DFT
   Georgi Stoychev        : AutoAux, RI-MP2 NMR
   Willem Van den Heuvel  : Paramagnetic NMR
   Boris Wezisla          : Elementary symmetry handling
   Frank Wennmohs         : Technical directorship


 We gratefully acknowledge several colleagues who have allowed us to
 interface, adapt or use parts of their codes:
   Stefan Grimme, W. Hujo, H. Kruse,             : VdW corrections, initial TS optimization,
                  C. Bannwarth                     DFT functionals, gCP, sTDA/sTD-DF
   Ed Valeev                                     : LibInt (2-el integral package), F12 methods
   Garnet Chan, S. Sharma, J. Yang, R. Olivares  : DMRG
   Ulf Ekstrom                                   : XCFun DFT Library
   Mihaly Kallay                                 : mrcc  (arbitrary order and MRCC methods)
   Andreas Klamt, Michael Diedenhofen            : otool_cosmo (COSMO solvation model)
   Jiri Pittner, Ondrej Demel                    : Mk-CCSD
   Frank Weinhold                                : gennbo (NPA and NBO analysis)
   Christopher J. Cramer and Donald G. Truhlar   : smd solvation model
   Lars Goerigk                                  : TD-DFT with DH, B97 family of functionals
   V. Asgeirsson, H. Jonsson                     : NEB implementation
   FAccTs GmbH                                   : IRC, NEB, NEB-TS, Multilevel


 Your calculation uses the libint2 library for the computation of 2-el integrals
 For citations please refer to: http://libint.valeyev.net

 This ORCA versions uses:
   CBLAS   interface :  Fast vector & matrix operations
   LAPACKE interface :  Fast linear algebra routines
   SCALAPACK package :  Parallel linear algebra routines


Your calculation utilizes the atom-pairwise dispersion correction
with the zero-damping scheme (D30)
Cite in your paper:
S.Grimme, J.Antony, S.Ehrlich and H.Krieg, J.Chem.Phys., 132, (2010), 154104 
   

XCFun DFT library Copyright 2009-2010 Ulf Ekstrom and contributors.
See http://admol.org/xcfun for more information. This is free soft-
ware; see the source code for copying conditions. There is ABSOLUTELY
NO WARRANTY; not even for MERCHANTABILITY or FITNESS FOR A PARTICULAR
PURPOSE. For details see the documentation. Scientific users of this 
library should cite U. Ekstrom, L. Visscher, R. Bast, A. J. Thorvald-
sen and K. Ruud; J.Chem.Theor.Comp. 2010, DOI: 10.1021/ct100117s
XCFun Version 0.99 
----- Orbital basis set information -----
Your calculation utilizes the basis: def2-TZVP
   F. Weigend and R. Ahlrichs, Phys. Chem. Chem. Phys. 7, 3297 (2005).

================================================================================
                                        WARNINGS
                       Please study these warnings very carefully!
================================================================================


INFO   : the flag for use of LIBINT has been found!

================================================================================
                                       INPUT FILE
================================================================================
NAME = 31.in
|  1> #Run DFT-D3 single point of the dimer
|  2> ! wB97X-D3 def2-TZVP TIGHTSCF  CHELPG PAL8
|  3> 
|  4> %base "31_charges"
|  5> 
|  6> %scf
|  7> MaxIter 1000
|  8> end
|  9> %output
| 10>   Print[ P_Mayer ] 1
| 11>   Print[ P_NatPop ] 1
| 12>   Print[ P_Hirshfeld ] 1
| 13>   Print[ P_Mulliken ] 1
| 14>   Print [ P_Loewdin ] 1
| 15> end
| 16> 
| 17> * xyz 0 1
| 18>   C                      -9.791303            -10.099411           9.310983            
| 19>   O                      -9.002937            -10.753431           10.296551           
| 20>   H                      -9.538551            -10.874816           11.117157           
| 21>   H                      -9.195692            -10.205011           8.417178            
| 22>   H                      -10.803810           -10.464244           9.140756            
| 23>   H                      -9.751564            -9.028167            9.612404            
| 24> *
| 25> 
| 26>                          ****END OF INPUT****
================================================================================

                       ****************************
                       * Single Point Calculation *
                       ****************************

---------------------------------
CARTESIAN COORDINATES (ANGSTROEM)
---------------------------------
  C     -9.791303  -10.099411    9.310983
  O     -9.002937  -10.753431   10.296551
  H     -9.538551  -10.874816   11.117157
  H     -9.195692  -10.205011    8.417178
  H    -10.803810  -10.464244    9.140756
  H     -9.751564   -9.028167    9.612404

----------------------------
CARTESIAN COORDINATES (A.U.)
----------------------------
  NO LB      ZA    FRAG     MASS         X           Y           Z
   0 C     6.0000    0    12.011  -18.502881  -19.085121   17.595208
   1 O     8.0000    0    15.999  -17.013085  -20.321040   19.457662
   2 H     1.0000    0     1.008  -18.025249  -20.550424   21.008382
   3 H     1.0000    0     1.008  -17.377339  -19.284676   15.906161
   4 H     1.0000    0     1.008  -20.416242  -19.774555   17.273525
   5 H     1.0000    0     1.008  -18.427785  -17.060763   18.164811

--------------------------------
INTERNAL COORDINATES (ANGSTROEM)
--------------------------------
 C      0   0   0     0.000000000000     0.00000000     0.00000000
 O      1   0   0     1.421480704399     0.00000000     0.00000000
 H      2   1   0     0.987426393438   109.38561031     0.00000000
 H      1   2   3     1.079254928803   102.89175060   191.35656728
 H      1   2   3     1.089610377368   118.01016094   313.30957384
 H      1   2   3     1.113551756722   103.60039415    79.60778175

---------------------------
INTERNAL COORDINATES (A.U.)
---------------------------
 C      0   0   0     0.000000000000     0.00000000     0.00000000
 O      1   0   0     2.686209235968     0.00000000     0.00000000
 H      2   1   0     1.865965461002   109.38561031     0.00000000
 H      1   2   3     2.039496244123   102.89175060   191.35656728
 H      1   2   3     2.059065205903   118.01016094   313.30957384
 H      1   2   3     2.104307856151   103.60039415    79.60778175

---------------------
BASIS SET INFORMATION
---------------------
There are 3 groups of distinct atoms

 Group   1 Type C   : 11s6p2d1f contracted to 5s3p2d1f pattern {62111/411/11/1}
 Group   2 Type O   : 11s6p2d1f contracted to 5s3p2d1f pattern {62111/411/11/1}
 Group   3 Type H   : 5s1p contracted to 3s1p pattern {311/1}

Atom   0C    basis set group =>   1
Atom   1O    basis set group =>   2
Atom   2H    basis set group =>   3
Atom   3H    basis set group =>   3
Atom   4H    basis set group =>   3
Atom   5H    basis set group =>   3


           ************************************************************
           *        Program running with 8 parallel MPI-processes     *
           *              working on a common directory               *
           ************************************************************
------------------------------------------------------------------------------
                           ORCA GTO INTEGRAL CALCULATION
------------------------------------------------------------------------------

                         BASIS SET STATISTICS AND STARTUP INFO

 # of primitive gaussian shells          ...   64
 # of primitive gaussian functions       ...  124
 # of contracted shells                  ...   38
 # of contracted basis functions         ...   86
 Highest angular momentum                ...    3
 Maximum contraction depth               ...    6
 Integral package used                   ... LIBINT
 Integral threshhold            Thresh   ...  2.500e-11
 Primitive cut-off              TCut     ...  2.500e-12


------------------------------ INTEGRAL EVALUATION ----------------------------


 * One electron integrals 
 Pre-screening matrix                    ... done
 Shell pair data                         ... done (   0.000 sec)



           ************************************************************
           *        Program running with 8 parallel MPI-processes     *
           *              working on a common directory               *
           ************************************************************
-------------------------------------------------------------------------------
                                 ORCA SCF
-------------------------------------------------------------------------------

------------
SCF SETTINGS
------------
Hamiltonian:
 Density Functional     Method          .... DFT(GTOs)
 Exchange Functional    Exchange        .... WB97X-D3
 Correlation Functional Correlation     .... WB97X-D3
 Gradients option       PostSCFGGA      .... off
 Hybrid DFT is turned on
   Fraction HF Exchange ScalHFX         ....  0.195728
   Scaling of DF-GGA-X  ScalDFX         ....  0.000000
   Scaling of DF-GGA-C  ScalDFC         ....  1.000000
   Scaling of DF-LDA-C  ScalLDAC        ....  1.000000
   Perturbative correction              ....  0.000000
   Density functional embedding theory  .... OFF
 Long-range corrected/Screened/Range-Separated Hybrid DFT is turned on
   Amount of maximum screened exact exchange              ....  0.804272
   Range separation parameter mu (erf(mu*r12)/r12)        ....  0.250000


General Settings:
 Integral files         IntName         .... 31_charges
 Hartree-Fock type      HFTyp           .... RHF
 Total Charge           Charge          ....    0
 Multiplicity           Mult            ....    1
 Number of Electrons    NEL             ....   18
 Basis Dimension        Dim             ....   86
 Nuclear Repulsion      ENuc            ....     40.2094195069 Eh

Convergence Acceleration:
 DIIS                   CNVDIIS         .... on
   Start iteration      DIISMaxIt       ....    12
   Startup error        DIISStart       ....  0.200000
   # of expansion vecs  DIISMaxEq       ....     5
   Bias factor          DIISBfac        ....   1.050
   Max. coefficient     DIISMaxC        ....  10.000
 Newton-Raphson         CNVNR           .... off
 SOSCF                  CNVSOSCF        .... on
   Start iteration      SOSCFMaxIt      ....   150
   Startup grad/error   SOSCFStart      ....  0.003300
 Level Shifting         CNVShift        .... on
   Level shift para.    LevelShift      ....    0.2500
   Turn off err/grad.   ShiftErr        ....    0.0010
 Zerner damping         CNVZerner       .... off
 Static damping         CNVDamp         .... on
   Fraction old density DampFac         ....    0.7000
   Max. Damping (<1)    DampMax         ....    0.9800
   Min. Damping (>=0)   DampMin         ....    0.0000
   Turn off err/grad.   DampErr         ....    0.1000
 Fernandez-Rico         CNVRico         .... off

SCF Procedure:
 Maximum # iterations   MaxIter         ....  1000
 SCF integral mode      SCFMode         .... Direct
   Integral package                     .... LIBINT
 Reset frequency        DirectResetFreq ....    20
 Integral Threshold     Thresh          ....  2.500e-11 Eh
 Primitive CutOff       TCut            ....  2.500e-12 Eh

Convergence Tolerance:
 Convergence Check Mode ConvCheckMode   .... Total+1el-Energy
 Convergence forced     ConvForced      .... 0
 Energy Change          TolE            ....  1.000e-08 Eh
 1-El. energy change                    ....  1.000e-05 Eh
 Orbital Gradient       TolG            ....  1.000e-05
 Orbital Rotation angle TolX            ....  1.000e-05
 DIIS Error             TolErr          ....  5.000e-07


Diagonalization of the overlap matrix:
Smallest eigenvalue                        ... 1.654e-03
Time for diagonalization                   ...    0.027 sec
Threshold for overlap eigenvalues          ... 1.000e-08
Number of eigenvalues below threshold      ... 0
Time for construction of square roots      ...    0.005 sec
Total time needed                          ...    0.032 sec

-------------------
DFT GRID GENERATION
-------------------

General Integration Accuracy     IntAcc      ...  4.340
Radial Grid Type                 RadialGrid  ... Gauss-Chebyshev
Angular Grid (max. acc.)         AngularGrid ... Lebedev-110
Angular grid pruning method      GridPruning ... 3 (G Style)
Weight generation scheme         WeightScheme... Becke
Basis function cutoff            BFCut       ...    1.0000e-11
Integration weight cutoff        WCut        ...    1.0000e-14
Grids for H and He will be reduced by one unit

# of grid points (after initial pruning)     ...   6548 (   0.0 sec)
# of grid points (after weights+screening)   ...   6390 (   0.0 sec)
nearest neighbour list constructed           ...    0.0 sec
Grid point re-assignment to atoms done       ...    0.0 sec
Grid point division into batches done        ...    0.0 sec
Reduced shell lists constructed in    0.0 sec

Total number of grid points                  ...     6390
Total number of batches                      ...      102
Average number of points per batch           ...       62
Average number of grid points per atom       ...     1065
Average number of shells per batch           ...    32.00 (84.21%)
Average number of basis functions per batch  ...    73.43 (85.38%)
Average number of large shells per batch     ...    30.57 (95.54%)
Average number of large basis fcns per batch ...    70.57 (96.11%)
Maximum spatial batch extension              ...  15.74, 18.49, 11.36 au
Average spatial batch extension              ...   0.45,  0.47,  0.37 au

Time for grid setup =    0.034 sec

------------------------------
INITIAL GUESS: MODEL POTENTIAL
------------------------------
Loading Hartree-Fock densities                     ... done
Calculating cut-offs                               ... done
Setting up the integral package                    ... done
Initializing the effective Hamiltonian             ... done
Starting the Coulomb interaction                   ... done (   0.0 sec)
Reading the grid                                   ... done
Mapping shells                                     ... done
Starting the XC term evaluation                    ... done (   0.0 sec)
  promolecular density results
     # of electrons  =     17.997735229
     EX              =    -14.421265174
     EC              =     -0.574236263
     EX+EC           =    -14.995501437
Transforming the Hamiltonian                       ... done (   0.0 sec)
Diagonalizing the Hamiltonian                      ... done (   0.0 sec)
Back transforming the eigenvectors                 ... done (   0.0 sec)
Now organizing SCF variables                       ... done
                      ------------------
                      INITIAL GUESS DONE (   0.2 sec)
                      ------------------
--------------
SCF ITERATIONS
--------------
ITER       Energy         Delta-E        Max-DP      RMS-DP      [F,P]     Damp
               ***  Starting incremental Fock matrix formation  ***
  0   -115.6450467874   0.000000000000 0.03509924  0.00149265  0.2342112 0.7000
  1   -115.6824645591  -0.037417771682 0.02252554  0.00105282  0.1148376 0.7000
                               ***Turning on DIIS***
  2   -115.6995476148  -0.017083055677 0.03436971  0.00188684  0.0451933 0.0000
  3   -115.7272923538  -0.027744738997 0.01734214  0.00069111  0.0588432 0.0000
  4   -115.7318883851  -0.004596031372 0.00418445  0.00013545  0.0063848 0.0000
                      *** Initiating the SOSCF procedure ***
                           *** Shutting down DIIS ***
                      *** Re-Reading the Fockian *** 
                      *** Removing any level shift *** 
ITER      Energy       Delta-E        Grad      Rot      Max-DP    RMS-DP
  5   -115.73198775  -0.0000993683  0.000436  0.000436  0.000761  0.000044
               *** Restarting incremental Fock matrix formation ***
  6   -115.73199638  -0.0000086251  0.000167  0.000186  0.000475  0.000026
  7   -115.73199717  -0.0000007916  0.000044  0.000089  0.000215  0.000012
  8   -115.73199724  -0.0000000670  0.000019  0.000018  0.000024  0.000001
  9   -115.73199724  -0.0000000044  0.000012  0.000009  0.000013  0.000001
                  ***Gradient check signals convergence***
              ***Rediagonalizing the Fockian in SOSCF/NRSCF***

               *****************************************************
               *                     SUCCESS                       *
               *           SCF CONVERGED AFTER  10 CYCLES          *
               *****************************************************

Setting up the final grid:

General Integration Accuracy     IntAcc      ...  4.670
Radial Grid Type                 RadialGrid  ... Gauss-Chebyshev
Angular Grid (max. acc.)         AngularGrid ... Lebedev-302
Angular grid pruning method      GridPruning ... 3 (G Style)
Weight generation scheme         WeightScheme... Becke
Basis function cutoff            BFCut       ...    1.0000e-11
Integration weight cutoff        WCut        ...    1.0000e-14
Grids for H and He will be reduced by one unit

# of grid points (after initial pruning)     ...  26000 (   0.0 sec)
# of grid points (after weights+screening)   ...  25197 (   3.4 sec)
nearest neighbour list constructed           ...    0.0 sec
Grid point re-assignment to atoms done       ...    0.0 sec
Grid point division into batches done        ...    0.1 sec
Reduced shell lists constructed in    0.1 sec

Total number of grid points                  ...    25197
Total number of batches                      ...      397
Average number of points per batch           ...       63
Average number of grid points per atom       ...     4200
Average number of shells per batch           ...    31.45 (82.77%)
Average number of basis functions per batch  ...    71.88 (83.58%)
Average number of large shells per batch     ...    29.88 (95.01%)
Average number of large basis fcns per batch ...    68.94 (95.91%)
Maximum spatial batch extension              ...  13.60, 15.19, 11.93 au
Average spatial batch extension              ...   0.29,  0.32,  0.27 au

Final grid set up in    3.7 sec
Final integration                            ... done (   0.4 sec)
Change in XC energy                          ...    -0.000052041
Integrated number of electrons               ...    18.000011804
Previous integrated no of electrons          ...    17.998775332

----------------
TOTAL SCF ENERGY
----------------

Total Energy       :         -115.73204928 Eh           -3149.22916 eV

Components:
Nuclear Repulsion  :           40.20941951 Eh            1094.15393 eV
Electronic Energy  :         -155.94146879 Eh           -4243.38310 eV
One Electron Energy:         -236.89874268 Eh           -6446.34251 eV
Two Electron Energy:           80.95727389 Eh            2202.95942 eV

Virial components:
Potential Energy   :         -230.93604811 Eh           -6284.08935 eV
Kinetic Energy     :          115.20399882 Eh            3134.86018 eV
Virial Ratio       :            2.00458361


DFT components:
N(Alpha)           :        9.000005902005 electrons
N(Beta)            :        9.000005902005 electrons
N(Total)           :       18.000011804009 electrons
E(XC)              :      -10.642354531863 Eh       
DFET-embed. en.    :        0.000000000000 Eh       

---------------
SCF CONVERGENCE
---------------

  Last Energy change         ...   -1.7468e-09  Tolerance :   1.0000e-08
  Last MAX-Density change    ...    3.0462e-06  Tolerance :   1.0000e-07
  Last RMS-Density change    ...    1.7888e-07  Tolerance :   5.0000e-09
  Last Orbital Gradient      ...    2.4243e-06  Tolerance :   1.0000e-05
  Last Orbital Rotation      ...    1.7662e-06  Tolerance :   1.0000e-05

             **** THE GBW FILE WAS UPDATED (31_charges.gbw) ****
             **** DENSITY FILE WAS UPDATED (31_charges.scfp.tmp) ****
             **** ENERGY FILE WAS UPDATED (31_charges.en.tmp) ****
----------------
ORBITAL ENERGIES
----------------

  NO   OCC          E(Eh)            E(eV) 
   0   2.0000     -19.228650      -523.2382 
   1   2.0000     -10.312027      -280.6045 
   2   2.0000      -1.126824       -30.6625 
   3   2.0000      -0.792263       -21.5586 
   4   2.0000      -0.605392       -16.4736 
   5   2.0000      -0.542746       -14.7689 
   6   2.0000      -0.519851       -14.1459 
   7   2.0000      -0.434194       -11.8150 
   8   2.0000      -0.369106       -10.0439 
   9   0.0000       0.113415         3.0862 
  10   0.0000       0.156906         4.2696 
  11   0.0000       0.195613         5.3229 
  12   0.0000       0.204715         5.5706 
  13   0.0000       0.226360         6.1596 
  14   0.0000       0.296329         8.0635 
  15   0.0000       0.316945         8.6245 
  16   0.0000       0.400500        10.8982 
  17   0.0000       0.445570        12.1246 
  18   0.0000       0.478855        13.0303 
  19   0.0000       0.535401        14.5690 
  20   0.0000       0.551746        15.0138 
  21   0.0000       0.561208        15.2713 
  22   0.0000       0.595297        16.1989 
  23   0.0000       0.607738        16.5374 
  24   0.0000       0.677391        18.4327 
  25   0.0000       0.776865        21.1396 
  26   0.0000       0.827838        22.5266 
  27   0.0000       0.866093        23.5676 
  28   0.0000       0.988083        26.8871 
  29   0.0000       1.020825        27.7781 
  30   0.0000       1.104031        30.0422 
  31   0.0000       1.373486        37.3745 
  32   0.0000       1.506064        40.9821 
  33   0.0000       1.546209        42.0745 
  34   0.0000       1.595222        43.4082 
  35   0.0000       1.611708        43.8568 
  36   0.0000       1.637184        44.5500 
  37   0.0000       1.680038        45.7162 
  38   0.0000       1.709105        46.5071 
  39   0.0000       1.768997        48.1369 
  40   0.0000       1.941199        52.8227 
  41   0.0000       2.038133        55.4604 
  42   0.0000       2.057699        55.9928 
  43   0.0000       2.077912        56.5428 
  44   0.0000       2.107835        57.3571 
  45   0.0000       2.283927        62.1488 
  46   0.0000       2.322528        63.1992 
  47   0.0000       2.349425        63.9311 
  48   0.0000       2.384363        64.8818 
  49   0.0000       2.389182        65.0130 
  50   0.0000       2.510558        68.3158 
  51   0.0000       2.590320        70.4862 
  52   0.0000       2.644921        71.9720 
  53   0.0000       2.662939        72.4623 
  54   0.0000       2.776222        75.5448 
  55   0.0000       2.860481        77.8377 
  56   0.0000       2.910974        79.2116 
  57   0.0000       3.017125        82.1001 
  58   0.0000       3.091107        84.1133 
  59   0.0000       3.177445        86.4627 
  60   0.0000       3.331752        90.6616 
  61   0.0000       3.379447        91.9594 
  62   0.0000       3.437609        93.5421 
  63   0.0000       3.512610        95.5830 
  64   0.0000       3.612681        98.3060 
  65   0.0000       3.634318        98.8948 
  66   0.0000       3.673887        99.9716 
  67   0.0000       3.969372       108.0121 
  68   0.0000       4.181121       113.7741 
  69   0.0000       4.280329       116.4737 
  70   0.0000       4.475010       121.7712 
  71   0.0000       4.581117       124.6585 
  72   0.0000       5.337815       145.2493 
  73   0.0000       5.411770       147.2618 
  74   0.0000       5.539209       150.7295 
  75   0.0000       5.818296       158.3239 
  76   0.0000       5.821918       158.4224 
  77   0.0000       5.956227       162.0772 
  78   0.0000       6.298038       171.3783 
  79   0.0000       6.520327       177.4271 
  80   0.0000       6.736552       183.3109 
  81   0.0000       6.819880       185.5784 
  82   0.0000       7.044008       191.6772 
  83   0.0000       7.187177       195.5730 
  84   0.0000      22.373310       608.8087 
  85   0.0000      43.685319      1188.7380 

                    ********************************
                    * MULLIKEN POPULATION ANALYSIS *
                    ********************************

-----------------------
MULLIKEN ATOMIC CHARGES
-----------------------
   0 C :   -0.159819
   1 O :   -0.482634
   2 H :    0.312064
   3 H :    0.120815
   4 H :    0.105764
   5 H :    0.103810
Sum of atomic charges:    0.0000000

--------------------------------
MULLIKEN REDUCED ORBITAL CHARGES
--------------------------------
  0 C s       :     3.233073  s :     3.233073
      pz      :     0.898643  p :     2.825482
      px      :     0.960171
      py      :     0.966668
      dz2     :     0.028770  d :     0.093631
      dxz     :     0.019657
      dyz     :     0.013326
      dx2y2   :     0.022112
      dxy     :     0.009767
      f0      :     0.000937  f :     0.007632
      f+1     :     0.001531
      f-1     :     0.000672
      f+2     :     0.001899
      f-2     :     0.000953
      f+3     :     0.000726
      f-3     :     0.000914
  1 O s       :     3.800137  s :     3.800137
      pz      :     1.288699  p :     4.650431
      px      :     1.561833
      py      :     1.799899
      dz2     :     0.005273  d :     0.030449
      dxz     :     0.012739
      dyz     :     0.002886
      dx2y2   :     0.004567
      dxy     :     0.004985
      f0      :     0.000157  f :     0.001617
      f+1     :     0.000458
      f-1     :     0.000290
      f+2     :     0.000260
      f-2     :     0.000258
      f+3     :     0.000098
      f-3     :     0.000095
  2 H s       :     0.643593  s :     0.643593
      pz      :     0.016307  p :     0.044343
      px      :     0.012757
      py      :     0.015279
  3 H s       :     0.858717  s :     0.858717
      pz      :     0.009789  p :     0.020468
      px      :     0.006463
      py      :     0.004216
  4 H s       :     0.875092  s :     0.875092
      pz      :     0.003583  p :     0.019144
      px      :     0.011321
      py      :     0.004241
  5 H s       :     0.877090  s :     0.877090
      pz      :     0.003859  p :     0.019100
      px      :     0.003490
      py      :     0.011752


                     *******************************
                     * LOEWDIN POPULATION ANALYSIS *
                     *******************************

----------------------
LOEWDIN ATOMIC CHARGES
----------------------
   0 C :   -0.382304
   1 O :   -0.099776
   2 H :    0.179827
   3 H :    0.107462
   4 H :    0.093094
   5 H :    0.101697

-------------------------------
LOEWDIN REDUCED ORBITAL CHARGES
-------------------------------
  0 C s       :     2.871395  s :     2.871395
      pz      :     0.974398  p :     3.051877
      px      :     1.046217
      py      :     1.031261
      dz2     :     0.095644  d :     0.402592
      dxz     :     0.098610
      dyz     :     0.053087
      dx2y2   :     0.105799
      dxy     :     0.049453
      f0      :     0.007251  f :     0.056440
      f+1     :     0.011133
      f-1     :     0.006327
      f+2     :     0.011743
      f-2     :     0.010714
      f+3     :     0.003781
      f-3     :     0.005492
  1 O s       :     3.387585  s :     3.387585
      pz      :     1.318401  p :     4.637130
      px      :     1.583722
      py      :     1.735007
      dz2     :     0.018209  d :     0.070635
      dxz     :     0.025092
      dyz     :     0.010037
      dx2y2   :     0.008197
      dxy     :     0.009100
      f0      :     0.000449  f :     0.004425
      f+1     :     0.001340
      f-1     :     0.000521
      f+2     :     0.000939
      f-2     :     0.000625
      f+3     :     0.000301
      f-3     :     0.000250
  2 H s       :     0.673749  s :     0.673749
      pz      :     0.057337  p :     0.146424
      px      :     0.049222
      py      :     0.039865
  3 H s       :     0.831158  s :     0.831158
      pz      :     0.027831  p :     0.061380
      px      :     0.020468
      py      :     0.013080
  4 H s       :     0.845596  s :     0.845596
      pz      :     0.012218  p :     0.061309
      px      :     0.034794
      py      :     0.014297
  5 H s       :     0.841252  s :     0.841252
      pz      :     0.012381  p :     0.057051
      px      :     0.010866
      py      :     0.033804


                      *****************************
                      * MAYER POPULATION ANALYSIS *
                      *****************************

  NA   - Mulliken gross atomic population
  ZA   - Total nuclear charge
  QA   - Mulliken gross atomic charge
  VA   - Mayer's total valence
  BVA  - Mayer's bonded valence
  FA   - Mayer's free valence

  ATOM       NA         ZA         QA         VA         BVA        FA
  0 C      6.1598     6.0000    -0.1598     3.9275     3.9275     0.0000
  1 O      8.4826     8.0000    -0.4826     1.8710     1.8710     0.0000
  2 H      0.6879     1.0000     0.3121     0.9126     0.9126     0.0000
  3 H      0.8792     1.0000     0.1208     0.9578     0.9578     0.0000
  4 H      0.8942     1.0000     0.1058     0.9572     0.9572     0.0000
  5 H      0.8962     1.0000     0.1038     0.9650     0.9650     0.0000

  Mayer bond orders larger than 0.1
B(  0-C ,  1-O ) :   0.9920 B(  0-C ,  3-H ) :   0.9753 B(  0-C ,  4-H ) :   0.9640 
B(  0-C ,  5-H ) :   0.9854 B(  1-O ,  2-H ) :   0.8975 


------------------
HIRSHFELD ANALYSIS
------------------

Total integrated alpha density =      8.999387666
Total integrated beta density  =      8.999387666

  ATOM     CHARGE      SPIN    
   0 C    0.004505    0.000000
   1 O   -0.255906    0.000000
   2 H    0.160235    0.000000
   3 H    0.036836    0.000000
   4 H    0.034431    0.000000
   5 H    0.021123    0.000000

  TOTAL   0.001225    0.000000

-------
TIMINGS
-------

Total SCF time: 0 days 0 hours 0 min 28 sec 

Total time                  ....      28.912 sec
Sum of individual times     ....      25.684 sec  ( 88.8%)

Fock matrix formation       ....      16.924 sec  ( 58.5%)
  XC integration            ....       4.415 sec  ( 26.1% of F)
    Basis function eval.    ....       0.039 sec  (  0.9% of XC)
    Density eval.           ....       0.058 sec  (  1.3% of XC)
    XC-Functional eval.     ....       0.069 sec  (  1.6% of XC)
    XC-Potential eval.      ....       0.039 sec  (  0.9% of XC)
Diagonalization             ....       1.459 sec  (  5.0%)
Density matrix formation    ....       2.068 sec  (  7.2%)
Population analysis         ....       0.476 sec  (  1.6%)
Initial guess               ....       0.123 sec  (  0.4%)
Orbital Transformation      ....       0.000 sec  (  0.0%)
Orbital Orthonormalization  ....       0.000 sec  (  0.0%)
DIIS solution               ....       0.266 sec  (  0.9%)
SOSCF solution              ....       0.625 sec  (  2.2%)
Grid generation             ....       3.744 sec  ( 13.0%)


-------------------------------------------------------------------------------
                          DFT DISPERSION CORRECTION                            
                                                                               
                              DFTD3 V3.1  Rev 1                                
                              USING zero damping                               
-------------------------------------------------------------------------------
The omegaB97X-D3 functional is recognized. Fit by Chai et al.
Active option DFTDOPT                   ...         3   

molecular C6(AA) [au] = 208.768111 


            DFT-D V3
 parameters
 s6 scaling factor         :     1.0000 
 rs6 scaling factor        :     1.2810 
 s8 scaling factor         :     1.0000 
 rs8 scaling factor        :     1.0940 
 Damping factor alpha6     :    14.0000 
 Damping factor alpha8     :    16.0000 
 ad hoc parameters k1-k3   :    16.0000     1.3333    -4.0000 

 Edisp/kcal,au: -0.152986709245  -0.000243799814 
 E6   /kcal   :  -0.029935262 
 E8   /kcal   :  -0.123051447 
 % E8         :  80.432769358 

-------------------------   ----------------
Dispersion correction           -0.000243800
-------------------------   ----------------


-------------------------   --------------------
FINAL SINGLE POINT ENERGY      -115.732293083826
-------------------------   --------------------


                            ***************************************
                            *     ORCA property calculations      *
                            ***************************************

                                    ---------------------
                                    Active property flags
                                    ---------------------
   (+) Dipole Moment


------------------------------------------------------------------------------
                       ORCA ELECTRIC PROPERTIES CALCULATION
------------------------------------------------------------------------------

Dipole Moment Calculation                       ... on
Quadrupole Moment Calculation                   ... off
Polarizability Calculation                      ... off
GBWName                                         ... 31_charges.gbw
Electron density file                           ... 31_charges.scfp.tmp
The origin for moment calculation is the CENTER OF MASS  = (-17.766402, -19.712611 18.587194)

-------------
DIPOLE MOMENT
-------------
                                X             Y             Z
Electronic contribution:      0.93024      -0.90563       1.09186
Nuclear contribution   :     -1.57335       1.07754      -0.98407
                        -----------------------------------------
Total Dipole Moment    :     -0.64312       0.17191       0.10779
                        -----------------------------------------
Magnitude (a.u.)       :      0.67437
Magnitude (Debye)      :      1.71410



--------------------
Rotational spectrum 
--------------------
 
Rotational constants in cm-1:     4.182851     0.829458     0.802653 
Rotational constants in MHz : 125398.704955 24866.539161 24062.945640 

 Dipole components along the rotational axes: 
x,y,z [a.u.] :    -0.327439     0.588969    -0.025860 
x,y,z [Debye]:    -0.832283     1.497041    -0.065731 

 
------------------------------------------------------------------------------
                      ORCA CHELPG CHARGES GENERATION
------------------------------------------------------------------------------

GBW file                           ... 31_charges.gbw

Reading the GBW file               ... done

Grid spacing                       ...     0.300000
Point Cut-Off                      ...     2.800000
Van-der-Waals Radii                ...        COSMO
Total charge                       ...            0


Number of points X direction       ...           24
Number of points Y direction       ...           24
Number of points Z direction       ...           27
Maximum number of possible points  ...        15552
Final number of points             ...         5926


CHELPG Charges            
--------------------------------
  0   C   :      -0.044673
  1   O   :      -0.568399
  2   H   :       0.389153
  3   H   :       0.113189
  4   H   :       0.059278
  5   H   :       0.051452
--------------------------------
Total charge:    -0.000000
--------------------------------

CHELPG charges calculated...

Timings for individual parts in CHELPG calculation:
Grid generation                 ...        0.001 sec (=   0.000 min)
Potential calculation           ...        0.724 sec (=   0.012 min)
Fit to the potential            ...        0.001 sec (=   0.000 min)
------------------------------------------------------------------------------


Timings for individual modules:

Sum of individual times         ...       38.432 sec (=   0.641 min)
GTO integral calculation        ...        5.289 sec (=   0.088 min)  13.8 %
SCF iterations                  ...       32.318 sec (=   0.539 min)  84.1 %
CHELPG charge generation        ...        0.825 sec (=   0.014 min)   2.1 %
                             ****ORCA TERMINATED NORMALLY****
TOTAL RUN TIME: 0 days 0 hours 0 minutes 40 seconds 831 msec
