
                                 *****************
                                 * O   R   C   A *
                                 *****************

           --- An Ab Initio, DFT and Semiempirical electronic structure package ---

                  #######################################################
                  #                        -***-                        #
                  #          Department of theory and spectroscopy      #
                  #               Directorship: Frank Neese             #
                  #        Max Planck Institute fuer Kohlenforschung    #
                  #                Kaiser Wilhelm Platz 1               #
                  #                 D-45470 Muelheim/Ruhr               #
                  #                      Germany                        #
                  #                                                     #
                  #                  All rights reserved                #
                  #                        -***-                        #
                  #######################################################


                         Program Version 4.1.2  - RELEASE  -


 With contributions from (in alphabetic order):
   Daniel Aravena         : Magnetic Properties
   Michael Atanasov       : Ab Initio Ligand Field Theory
   Alexander A. Auer      : GIAO ZORA
   Ute Becker             : Parallelization
   Giovanni Bistoni       : ED, Open-shell LED
   Martin Brehm           : Molecular dynamics
   Dmytro Bykov           : SCF Hessian
   Vijay G. Chilkuri      : MRCI spin determinant printing
   Dipayan Datta          : RHF DLPNO-CCSD density
   Achintya Kumar Dutta   : EOM-CC, STEOM-CC
   Dmitry Ganyushin       : Spin-Orbit,Spin-Spin,Magnetic field MRCI
   Miquel Garcia          : C-PCM Hessian
   Yang Guo               : DLPNO-NEVPT2, CIM, IAO-localization
   Andreas Hansen         : Spin unrestricted coupled pair/coupled cluster methods
   Benjamin Helmich-Paris : CASSCF linear response (MC-RPA)
   Lee Huntington         : MR-EOM, pCC
   Robert Izsak           : Overlap fitted RIJCOSX, COSX-SCS-MP3, EOM
   Christian Kollmar      : KDIIS, OOCD, Brueckner-CCSD(T), CCSD density
   Simone Kossmann        : Meta GGA functionals, TD-DFT gradient, OOMP2, MP2 Hessian
   Martin Krupicka        : AUTO-CI
   Lucas Lang             : DCDCAS
   Dagmar Lenk            : GEPOL surface, SMD
   Dimitrios Liakos       : Extrapolation schemes; parallel MDCI
   Dimitrios Manganas     : ROCIS; embedding schemes
   Dimitrios Pantazis     : SARC Basis sets
   Taras Petrenko         : DFT Hessian,TD-DFT gradient, ASA, ECA, R-Raman, ABS, FL, XAS/XES, NRVS
   Peter Pinski           : DLPNO-MP2, DLPNO-MP2 Gradient
   Christoph Reimann      : Effective Core Potentials
   Marius Retegan         : Local ZFS, SOC
   Christoph Riplinger    : Optimizer, TS searches, QM/MM, DLPNO-CCSD(T), (RO)-DLPNO pert. Triples
   Tobias Risthaus        : Range-separated hybrids, TD-DFT gradient, RPA, STAB
   Michael Roemelt        : Restricted open shell CIS
   Masaaki Saitow         : Open-shell DLPNO
   Barbara Sandhoefer     : DKH picture change effects
   Avijit Sen             : IP-ROCIS
   Kantharuban Sivalingam : CASSCF convergence, NEVPT2, FIC-MRCI
   Bernardo de Souza      : ESD, SOC TD-DFT
   Georgi Stoychev        : AutoAux, RI-MP2 NMR
   Willem Van den Heuvel  : Paramagnetic NMR
   Boris Wezisla          : Elementary symmetry handling
   Frank Wennmohs         : Technical directorship


 We gratefully acknowledge several colleagues who have allowed us to
 interface, adapt or use parts of their codes:
   Stefan Grimme, W. Hujo, H. Kruse,             : VdW corrections, initial TS optimization,
                  C. Bannwarth                     DFT functionals, gCP, sTDA/sTD-DF
   Ed Valeev                                     : LibInt (2-el integral package), F12 methods
   Garnet Chan, S. Sharma, J. Yang, R. Olivares  : DMRG
   Ulf Ekstrom                                   : XCFun DFT Library
   Mihaly Kallay                                 : mrcc  (arbitrary order and MRCC methods)
   Andreas Klamt, Michael Diedenhofen            : otool_cosmo (COSMO solvation model)
   Jiri Pittner, Ondrej Demel                    : Mk-CCSD
   Frank Weinhold                                : gennbo (NPA and NBO analysis)
   Christopher J. Cramer and Donald G. Truhlar   : smd solvation model
   Lars Goerigk                                  : TD-DFT with DH, B97 family of functionals
   V. Asgeirsson, H. Jonsson                     : NEB implementation
   FAccTs GmbH                                   : IRC, NEB, NEB-TS, Multilevel


 Your calculation uses the libint2 library for the computation of 2-el integrals
 For citations please refer to: http://libint.valeyev.net

 This ORCA versions uses:
   CBLAS   interface :  Fast vector & matrix operations
   LAPACKE interface :  Fast linear algebra routines
   SCALAPACK package :  Parallel linear algebra routines


Your calculation utilizes the atom-pairwise dispersion correction
with the zero-damping scheme (D30)
Cite in your paper:
S.Grimme, J.Antony, S.Ehrlich and H.Krieg, J.Chem.Phys., 132, (2010), 154104 
   

XCFun DFT library Copyright 2009-2010 Ulf Ekstrom and contributors.
See http://admol.org/xcfun for more information. This is free soft-
ware; see the source code for copying conditions. There is ABSOLUTELY
NO WARRANTY; not even for MERCHANTABILITY or FITNESS FOR A PARTICULAR
PURPOSE. For details see the documentation. Scientific users of this 
library should cite U. Ekstrom, L. Visscher, R. Bast, A. J. Thorvald-
sen and K. Ruud; J.Chem.Theor.Comp. 2010, DOI: 10.1021/ct100117s
XCFun Version 0.99 
----- Orbital basis set information -----
Your calculation utilizes the basis: def2-TZVP
   F. Weigend and R. Ahlrichs, Phys. Chem. Chem. Phys. 7, 3297 (2005).

================================================================================
                                        WARNINGS
                       Please study these warnings very carefully!
================================================================================


INFO   : the flag for use of LIBINT has been found!

================================================================================
                                       INPUT FILE
================================================================================
NAME = 84.in
|  1> #Run DFT-D3 single point of the dimer
|  2> ! wB97X-D3 def2-TZVP TIGHTSCF  CHELPG PAL8
|  3> 
|  4> %base "84_charges"
|  5> 
|  6> %scf
|  7> MaxIter 1000
|  8> end
|  9> %output
| 10>   Print[ P_Mayer ] 1
| 11>   Print[ P_NatPop ] 1
| 12>   Print[ P_Hirshfeld ] 1
| 13>   Print[ P_Mulliken ] 1
| 14>   Print [ P_Loewdin ] 1
| 15> end
| 16> 
| 17> * xyz 0 1
| 18>   C                      -1.094180            2.603089             9.357593            
| 19>   O                      -0.497803            3.594599             10.147421           
| 20>   H                      0.392165             3.638094             9.905881            
| 21>   H                      -0.866021            2.497458             8.285564            
| 22>   H                      -0.795365            1.623784             9.770884            
| 23>   H                      -2.165425            2.618578             9.407741            
| 24> *
| 25> 
| 26>                          ****END OF INPUT****
================================================================================

                       ****************************
                       * Single Point Calculation *
                       ****************************

---------------------------------
CARTESIAN COORDINATES (ANGSTROEM)
---------------------------------
  C     -1.094180    2.603089    9.357593
  O     -0.497803    3.594599   10.147421
  H      0.392165    3.638094    9.905881
  H     -0.866021    2.497458    8.285564
  H     -0.795365    1.623784    9.770884
  H     -2.165425    2.618578    9.407741

----------------------------
CARTESIAN COORDINATES (A.U.)
----------------------------
  NO LB      ZA    FRAG     MASS         X           Y           Z
   0 C     6.0000    0    12.011   -2.067701    4.919125   17.683288
   1 O     8.0000    0    15.999   -0.940711    6.792808   19.175847
   2 H     1.0000    0     1.008    0.741084    6.875001   18.719402
   3 H     1.0000    0     1.008   -1.636543    4.719512   15.657447
   4 H     1.0000    0     1.008   -1.503022    3.068507   18.464295
   5 H     1.0000    0     1.008   -4.092060    4.948395   17.778054

--------------------------------
INTERNAL COORDINATES (ANGSTROEM)
--------------------------------
 C      0   0   0     0.000000000000     0.00000000     0.00000000
 O      1   0   0     1.400923222669     0.00000000     0.00000000
 H      2   1   0     0.923188186476   107.23076033     0.00000000
 H      1   2   3     1.101117892999   121.90982981   318.42465997
 H      1   2   3     1.104145886163   107.54725986    76.63668175
 H      1   2   3     1.072529990746   112.86808100   192.46664099

---------------------------
INTERNAL COORDINATES (A.U.)
---------------------------
 C      0   0   0     0.000000000000     0.00000000     0.00000000
 O      1   0   0     2.647361225495     0.00000000     0.00000000
 H      2   1   0     1.744572842511   107.23076033     0.00000000
 H      1   2   3     2.080811258929   121.90982981   318.42465997
 H      1   2   3     2.086533336744   107.54725986    76.63668175
 H      1   2   3     2.026787952927   112.86808100   192.46664099

---------------------
BASIS SET INFORMATION
---------------------
There are 3 groups of distinct atoms

 Group   1 Type C   : 11s6p2d1f contracted to 5s3p2d1f pattern {62111/411/11/1}
 Group   2 Type O   : 11s6p2d1f contracted to 5s3p2d1f pattern {62111/411/11/1}
 Group   3 Type H   : 5s1p contracted to 3s1p pattern {311/1}

Atom   0C    basis set group =>   1
Atom   1O    basis set group =>   2
Atom   2H    basis set group =>   3
Atom   3H    basis set group =>   3
Atom   4H    basis set group =>   3
Atom   5H    basis set group =>   3


           ************************************************************
           *        Program running with 8 parallel MPI-processes     *
           *              working on a common directory               *
           ************************************************************
------------------------------------------------------------------------------
                           ORCA GTO INTEGRAL CALCULATION
------------------------------------------------------------------------------

                         BASIS SET STATISTICS AND STARTUP INFO

 # of primitive gaussian shells          ...   64
 # of primitive gaussian functions       ...  124
 # of contracted shells                  ...   38
 # of contracted basis functions         ...   86
 Highest angular momentum                ...    3
 Maximum contraction depth               ...    6
 Integral package used                   ... LIBINT
 Integral threshhold            Thresh   ...  2.500e-11
 Primitive cut-off              TCut     ...  2.500e-12


------------------------------ INTEGRAL EVALUATION ----------------------------


 * One electron integrals 
 Pre-screening matrix                    ... done
 Shell pair data                         ... done (   0.000 sec)



           ************************************************************
           *        Program running with 8 parallel MPI-processes     *
           *              working on a common directory               *
           ************************************************************
-------------------------------------------------------------------------------
                                 ORCA SCF
-------------------------------------------------------------------------------

------------
SCF SETTINGS
------------
Hamiltonian:
 Density Functional     Method          .... DFT(GTOs)
 Exchange Functional    Exchange        .... WB97X-D3
 Correlation Functional Correlation     .... WB97X-D3
 Gradients option       PostSCFGGA      .... off
 Hybrid DFT is turned on
   Fraction HF Exchange ScalHFX         ....  0.195728
   Scaling of DF-GGA-X  ScalDFX         ....  0.000000
   Scaling of DF-GGA-C  ScalDFC         ....  1.000000
   Scaling of DF-LDA-C  ScalLDAC        ....  1.000000
   Perturbative correction              ....  0.000000
   Density functional embedding theory  .... OFF
 Long-range corrected/Screened/Range-Separated Hybrid DFT is turned on
   Amount of maximum screened exact exchange              ....  0.804272
   Range separation parameter mu (erf(mu*r12)/r12)        ....  0.250000


General Settings:
 Integral files         IntName         .... 84_charges
 Hartree-Fock type      HFTyp           .... RHF
 Total Charge           Charge          ....    0
 Multiplicity           Mult            ....    1
 Number of Electrons    NEL             ....   18
 Basis Dimension        Dim             ....   86
 Nuclear Repulsion      ENuc            ....     40.7388461948 Eh

Convergence Acceleration:
 DIIS                   CNVDIIS         .... on
   Start iteration      DIISMaxIt       ....    12
   Startup error        DIISStart       ....  0.200000
   # of expansion vecs  DIISMaxEq       ....     5
   Bias factor          DIISBfac        ....   1.050
   Max. coefficient     DIISMaxC        ....  10.000
 Newton-Raphson         CNVNR           .... off
 SOSCF                  CNVSOSCF        .... on
   Start iteration      SOSCFMaxIt      ....   150
   Startup grad/error   SOSCFStart      ....  0.003300
 Level Shifting         CNVShift        .... on
   Level shift para.    LevelShift      ....    0.2500
   Turn off err/grad.   ShiftErr        ....    0.0010
 Zerner damping         CNVZerner       .... off
 Static damping         CNVDamp         .... on
   Fraction old density DampFac         ....    0.7000
   Max. Damping (<1)    DampMax         ....    0.9800
   Min. Damping (>=0)   DampMin         ....    0.0000
   Turn off err/grad.   DampErr         ....    0.1000
 Fernandez-Rico         CNVRico         .... off

SCF Procedure:
 Maximum # iterations   MaxIter         ....  1000
 SCF integral mode      SCFMode         .... Direct
   Integral package                     .... LIBINT
 Reset frequency        DirectResetFreq ....    20
 Integral Threshold     Thresh          ....  2.500e-11 Eh
 Primitive CutOff       TCut            ....  2.500e-12 Eh

Convergence Tolerance:
 Convergence Check Mode ConvCheckMode   .... Total+1el-Energy
 Convergence forced     ConvForced      .... 0
 Energy Change          TolE            ....  1.000e-08 Eh
 1-El. energy change                    ....  1.000e-05 Eh
 Orbital Gradient       TolG            ....  1.000e-05
 Orbital Rotation angle TolX            ....  1.000e-05
 DIIS Error             TolErr          ....  5.000e-07


Diagonalization of the overlap matrix:
Smallest eigenvalue                        ... 1.620e-03
Time for diagonalization                   ...    0.006 sec
Threshold for overlap eigenvalues          ... 1.000e-08
Number of eigenvalues below threshold      ... 0
Time for construction of square roots      ...    0.092 sec
Total time needed                          ...    0.098 sec

-------------------
DFT GRID GENERATION
-------------------

General Integration Accuracy     IntAcc      ...  4.340
Radial Grid Type                 RadialGrid  ... Gauss-Chebyshev
Angular Grid (max. acc.)         AngularGrid ... Lebedev-110
Angular grid pruning method      GridPruning ... 3 (G Style)
Weight generation scheme         WeightScheme... Becke
Basis function cutoff            BFCut       ...    1.0000e-11
Integration weight cutoff        WCut        ...    1.0000e-14
Grids for H and He will be reduced by one unit

# of grid points (after initial pruning)     ...   6548 (   0.0 sec)
# of grid points (after weights+screening)   ...   6363 (   2.3 sec)
nearest neighbour list constructed           ...    0.0 sec
Grid point re-assignment to atoms done       ...    0.0 sec
Grid point division into batches done        ...    0.0 sec
Reduced shell lists constructed in    0.0 sec

Total number of grid points                  ...     6363
Total number of batches                      ...      103
Average number of points per batch           ...       61
Average number of grid points per atom       ...     1060
Average number of shells per batch           ...    31.36 (82.52%)
Average number of basis functions per batch  ...    71.50 (83.14%)
Average number of large shells per batch     ...    30.36 (96.81%)
Average number of large basis fcns per batch ...    69.64 (97.40%)
Maximum spatial batch extension              ...  13.37, 15.83, 18.51 au
Average spatial batch extension              ...   0.36,  0.41,  0.48 au

Time for grid setup =    3.310 sec

------------------------------
INITIAL GUESS: MODEL POTENTIAL
------------------------------
Loading Hartree-Fock densities                     ... done
Calculating cut-offs                               ... done
Setting up the integral package                    ... done
Initializing the effective Hamiltonian             ... done
Starting the Coulomb interaction                   ... done (   0.0 sec)
Reading the grid                                   ... done
Mapping shells                                     ... done
Starting the XC term evaluation                    ... done (   0.1 sec)
  promolecular density results
     # of electrons  =     18.002225561
     EX              =    -14.443487509
     EC              =     -0.576536534
     EX+EC           =    -15.020024043
Transforming the Hamiltonian                       ... done (   0.0 sec)
Diagonalizing the Hamiltonian                      ... done (   0.3 sec)
Back transforming the eigenvectors                 ... done (   0.0 sec)
Now organizing SCF variables                       ... done
                      ------------------
                      INITIAL GUESS DONE (   3.9 sec)
                      ------------------
--------------
SCF ITERATIONS
--------------
ITER       Energy         Delta-E        Max-DP      RMS-DP      [F,P]     Damp
               ***  Starting incremental Fock matrix formation  ***
  0   -115.6439206677   0.000000000000 0.03457151  0.00147790  0.2405100 0.7000
  1   -115.6808879810  -0.036967313319 0.02061416  0.00104846  0.1209523 0.7000
                               ***Turning on DIIS***
  2   -115.6980510233  -0.017163042226 0.03063622  0.00190906  0.0497154 0.0000
  3   -115.7259897146  -0.027938691303 0.01656124  0.00068736  0.0571679 0.0000
  4   -115.7304791393  -0.004489424701 0.00396370  0.00013259  0.0059461 0.0000
                      *** Initiating the SOSCF procedure ***
                           *** Shutting down DIIS ***
                      *** Re-Reading the Fockian *** 
                      *** Removing any level shift *** 
ITER      Energy       Delta-E        Grad      Rot      Max-DP    RMS-DP
  5   -115.73056695  -0.0000878089  0.000497  0.000497  0.000688  0.000046
               *** Restarting incremental Fock matrix formation ***
  6   -115.73057478  -0.0000078355  0.000148  0.000201  0.000537  0.000028
  7   -115.73057554  -0.0000007552  0.000062  0.000126  0.000245  0.000013
  8   -115.73057560  -0.0000000572  0.000029  0.000025  0.000036  0.000002
  9   -115.73057561  -0.0000000148  0.000009  0.000008  0.000018  0.000001
 10   -115.73057561  -0.0000000012  0.000003  0.000003  0.000005  0.000000
                  ***Gradient check signals convergence***
              ***Rediagonalizing the Fockian in SOSCF/NRSCF***

               *****************************************************
               *                     SUCCESS                       *
               *           SCF CONVERGED AFTER  11 CYCLES          *
               *****************************************************

Setting up the final grid:

General Integration Accuracy     IntAcc      ...  4.670
Radial Grid Type                 RadialGrid  ... Gauss-Chebyshev
Angular Grid (max. acc.)         AngularGrid ... Lebedev-302
Angular grid pruning method      GridPruning ... 3 (G Style)
Weight generation scheme         WeightScheme... Becke
Basis function cutoff            BFCut       ...    1.0000e-11
Integration weight cutoff        WCut        ...    1.0000e-14
Grids for H and He will be reduced by one unit

# of grid points (after initial pruning)     ...  26000 (   0.0 sec)
# of grid points (after weights+screening)   ...  25168 (   0.0 sec)
nearest neighbour list constructed           ...    0.0 sec
Grid point re-assignment to atoms done       ...    0.0 sec
Grid point division into batches done        ...    0.1 sec
Reduced shell lists constructed in    0.1 sec

Total number of grid points                  ...    25168
Total number of batches                      ...      397
Average number of points per batch           ...       63
Average number of grid points per atom       ...     4195
Average number of shells per batch           ...    31.04 (81.68%)
Average number of basis functions per batch  ...    70.88 (82.42%)
Average number of large shells per batch     ...    29.82 (96.08%)
Average number of large basis fcns per batch ...    68.69 (96.90%)
Maximum spatial batch extension              ...  14.73, 18.04, 16.53 au
Average spatial batch extension              ...   0.30,  0.32,  0.32 au

Final grid set up in    0.1 sec
Final integration                            ... done (   0.1 sec)
Change in XC energy                          ...     0.000077383
Integrated number of electrons               ...    17.999980049
Previous integrated no of electrons          ...    18.002376510

----------------
TOTAL SCF ENERGY
----------------

Total Energy       :         -115.73049823 Eh           -3149.18696 eV

Components:
Nuclear Repulsion  :           40.73884619 Eh            1108.56036 eV
Electronic Energy  :         -156.46934442 Eh           -4257.74732 eV
One Electron Energy:         -237.80134892 Eh           -6470.90368 eV
Two Electron Energy:           81.33200450 Eh            2213.15636 eV

Virial components:
Potential Energy   :         -231.07015000 Eh           -6287.73844 eV
Kinetic Energy     :          115.33965177 Eh            3138.55149 eV
Virial Ratio       :            2.00338866


DFT components:
N(Alpha)           :        8.999990024451 electrons
N(Beta)            :        8.999990024451 electrons
N(Total)           :       17.999980048902 electrons
E(XC)              :      -10.672435180317 Eh       
DFET-embed. en.    :        0.000000000000 Eh       

---------------
SCF CONVERGENCE
---------------

  Last Energy change         ...   -2.3135e-10  Tolerance :   1.0000e-08
  Last MAX-Density change    ...    1.8095e-06  Tolerance :   1.0000e-07
  Last RMS-Density change    ...    9.6240e-08  Tolerance :   5.0000e-09
  Last Orbital Gradient      ...    8.1784e-07  Tolerance :   1.0000e-05
  Last Orbital Rotation      ...    8.7051e-07  Tolerance :   1.0000e-05

             **** THE GBW FILE WAS UPDATED (84_charges.gbw) ****
             **** DENSITY FILE WAS UPDATED (84_charges.scfp.tmp) ****
             **** ENERGY FILE WAS UPDATED (84_charges.en.tmp) ****
----------------
ORBITAL ENERGIES
----------------

  NO   OCC          E(Eh)            E(eV) 
   0   2.0000     -19.231081      -523.3043 
   1   2.0000     -10.311877      -280.6004 
   2   2.0000      -1.150312       -31.3016 
   3   2.0000      -0.801416       -21.8076 
   4   2.0000      -0.622219       -16.9314 
   5   2.0000      -0.540285       -14.7019 
   6   2.0000      -0.527797       -14.3621 
   7   2.0000      -0.440368       -11.9830 
   8   2.0000      -0.372436       -10.1345 
   9   0.0000       0.120106         3.2682 
  10   0.0000       0.153680         4.1818 
  11   0.0000       0.198884         5.4119 
  12   0.0000       0.209772         5.7082 
  13   0.0000       0.234758         6.3881 
  14   0.0000       0.304790         8.2937 
  15   0.0000       0.317350         8.6355 
  16   0.0000       0.402748        10.9593 
  17   0.0000       0.458365        12.4727 
  18   0.0000       0.492093        13.3905 
  19   0.0000       0.529085        14.3971 
  20   0.0000       0.555924        15.1275 
  21   0.0000       0.567156        15.4331 
  22   0.0000       0.600609        16.3434 
  23   0.0000       0.617863        16.8129 
  24   0.0000       0.677992        18.4491 
  25   0.0000       0.765461        20.8293 
  26   0.0000       0.809927        22.0392 
  27   0.0000       0.860915        23.4267 
  28   0.0000       0.992750        27.0141 
  29   0.0000       1.028386        27.9838 
  30   0.0000       1.102319        29.9956 
  31   0.0000       1.382555        37.6212 
  32   0.0000       1.510274        41.0966 
  33   0.0000       1.562853        42.5274 
  34   0.0000       1.584073        43.1048 
  35   0.0000       1.616688        43.9923 
  36   0.0000       1.646879        44.8138 
  37   0.0000       1.661951        45.2240 
  38   0.0000       1.707585        46.4658 
  39   0.0000       1.805421        49.1280 
  40   0.0000       1.955824        53.2207 
  41   0.0000       2.019220        54.9458 
  42   0.0000       2.063855        56.1603 
  43   0.0000       2.075249        56.4704 
  44   0.0000       2.116392        57.5900 
  45   0.0000       2.269489        61.7559 
  46   0.0000       2.326639        63.3111 
  47   0.0000       2.370694        64.5099 
  48   0.0000       2.392688        65.1083 
  49   0.0000       2.477452        67.4149 
  50   0.0000       2.523560        68.6696 
  51   0.0000       2.592106        70.5348 
  52   0.0000       2.642938        71.9180 
  53   0.0000       2.745838        74.7180 
  54   0.0000       2.827937        76.9521 
  55   0.0000       2.887712        78.5786 
  56   0.0000       2.943983        80.1098 
  57   0.0000       2.981172        81.1218 
  58   0.0000       3.084048        83.9212 
  59   0.0000       3.154355        85.8344 
  60   0.0000       3.258404        88.6657 
  61   0.0000       3.330820        90.6362 
  62   0.0000       3.435354        93.4807 
  63   0.0000       3.538301        96.2821 
  64   0.0000       3.605911        98.1218 
  65   0.0000       3.677189       100.0614 
  66   0.0000       3.695544       100.5609 
  67   0.0000       4.078726       110.9878 
  68   0.0000       4.268756       116.1588 
  69   0.0000       4.285295       116.6088 
  70   0.0000       4.369146       118.8905 
  71   0.0000       4.568770       124.3226 
  72   0.0000       5.357996       145.7985 
  73   0.0000       5.451451       148.3415 
  74   0.0000       5.578036       151.7861 
  75   0.0000       5.826128       158.5370 
  76   0.0000       5.847488       159.1182 
  77   0.0000       6.034188       164.1986 
  78   0.0000       6.465853       175.9448 
  79   0.0000       6.525068       177.5561 
  80   0.0000       6.767661       184.1574 
  81   0.0000       6.811414       185.3480 
  82   0.0000       7.035312       191.4406 
  83   0.0000       7.247173       197.2056 
  84   0.0000      22.443068       610.7069 
  85   0.0000      43.636849      1187.4190 

                    ********************************
                    * MULLIKEN POPULATION ANALYSIS *
                    ********************************

-----------------------
MULLIKEN ATOMIC CHARGES
-----------------------
   0 C :   -0.173703
   1 O :   -0.457768
   2 H :    0.309464
   3 H :    0.104130
   4 H :    0.094250
   5 H :    0.123627
Sum of atomic charges:   -0.0000000

--------------------------------
MULLIKEN REDUCED ORBITAL CHARGES
--------------------------------
  0 C s       :     3.212921  s :     3.212921
      pz      :     0.953645  p :     2.853670
      px      :     1.035840
      py      :     0.864184
      dz2     :     0.028443  d :     0.099326
      dxz     :     0.010116
      dyz     :     0.014199
      dx2y2   :     0.035361
      dxy     :     0.011207
      f0      :     0.000997  f :     0.007786
      f+1     :     0.000887
      f-1     :     0.001600
      f+2     :     0.001316
      f-2     :     0.000900
      f+3     :     0.001052
      f-3     :     0.001033
  1 O s       :     3.786544  s :     3.786544
      pz      :     1.679763  p :     4.638588
      px      :     1.317055
      py      :     1.641770
      dz2     :     0.005109  d :     0.030897
      dxz     :     0.005424
      dyz     :     0.007439
      dx2y2   :     0.009975
      dxy     :     0.002950
      f0      :     0.000231  f :     0.001738
      f+1     :     0.000136
      f-1     :     0.000217
      f+2     :     0.000309
      f-2     :     0.000240
      f+3     :     0.000435
      f-3     :     0.000171
  2 H s       :     0.638309  s :     0.638309
      pz      :     0.016093  p :     0.052227
      px      :     0.020103
      py      :     0.016031
  3 H s       :     0.876397  s :     0.876397
      pz      :     0.012024  p :     0.019473
      px      :     0.004035
      py      :     0.003414
  4 H s       :     0.885594  s :     0.885594
      pz      :     0.005060  p :     0.020155
      px      :     0.004385
      py      :     0.010710
  5 H s       :     0.855329  s :     0.855329
      pz      :     0.004280  p :     0.021045
      px      :     0.013042
      py      :     0.003722


                     *******************************
                     * LOEWDIN POPULATION ANALYSIS *
                     *******************************

----------------------
LOEWDIN ATOMIC CHARGES
----------------------
   0 C :   -0.399939
   1 O :   -0.043531
   2 H :    0.147787
   3 H :    0.096066
   4 H :    0.095969
   5 H :    0.103648

-------------------------------
LOEWDIN REDUCED ORBITAL CHARGES
-------------------------------
  0 C s       :     2.851202  s :     2.851202
      pz      :     1.040462  p :     3.066905
      px      :     1.068390
      py      :     0.958053
      dz2     :     0.126992  d :     0.423983
      dxz     :     0.036471
      dyz     :     0.082003
      dx2y2   :     0.131460
      dxy     :     0.047057
      f0      :     0.004840  f :     0.057849
      f+1     :     0.007309
      f-1     :     0.009660
      f+2     :     0.010787
      f-2     :     0.010905
      f+3     :     0.007987
      f-3     :     0.006361
  1 O s       :     3.343170  s :     3.343170
      pz      :     1.655015  p :     4.622020
      px      :     1.340188
      py      :     1.626817
      dz2     :     0.013011  d :     0.073342
      dxz     :     0.010953
      dyz     :     0.014300
      dx2y2   :     0.025544
      dxy     :     0.009534
      f0      :     0.000491  f :     0.004999
      f+1     :     0.000375
      f-1     :     0.000705
      f+2     :     0.001184
      f-2     :     0.000699
      f+3     :     0.001047
      f-3     :     0.000498
  2 H s       :     0.677196  s :     0.677196
      pz      :     0.050796  p :     0.175017
      px      :     0.079022
      py      :     0.045199
  3 H s       :     0.843597  s :     0.843597
      pz      :     0.036032  p :     0.060337
      px      :     0.013315
      py      :     0.010990
  4 H s       :     0.845288  s :     0.845288
      pz      :     0.015037  p :     0.058743
      px      :     0.013971
      py      :     0.029735
  5 H s       :     0.832949  s :     0.832949
      pz      :     0.013369  p :     0.063404
      px      :     0.038533
      py      :     0.011502


                      *****************************
                      * MAYER POPULATION ANALYSIS *
                      *****************************

  NA   - Mulliken gross atomic population
  ZA   - Total nuclear charge
  QA   - Mulliken gross atomic charge
  VA   - Mayer's total valence
  BVA  - Mayer's bonded valence
  FA   - Mayer's free valence

  ATOM       NA         ZA         QA         VA         BVA        FA
  0 C      6.1737     6.0000    -0.1737     3.9405     3.9405    -0.0000
  1 O      8.4578     8.0000    -0.4578     1.9061     1.9061    -0.0000
  2 H      0.6905     1.0000     0.3095     0.9193     0.9193     0.0000
  3 H      0.8959     1.0000     0.1041     0.9521     0.9521    -0.0000
  4 H      0.9057     1.0000     0.0943     0.9601     0.9601    -0.0000
  5 H      0.8764     1.0000     0.1236     0.9562     0.9562     0.0000

  Mayer bond orders larger than 0.1
B(  0-C ,  1-O ) :   1.0036 B(  0-C ,  3-H ) :   0.9667 B(  0-C ,  4-H ) :   0.9862 
B(  0-C ,  5-H ) :   0.9742 B(  1-O ,  2-H ) :   0.9076 


------------------
HIRSHFELD ANALYSIS
------------------

Total integrated alpha density =      9.001188255
Total integrated beta density  =      9.001188255

  ATOM     CHARGE      SPIN    
   0 C    0.004942    0.000000
   1 O   -0.243066    0.000000
   2 H    0.159058    0.000000
   3 H    0.026562    0.000000
   4 H    0.014574    0.000000
   5 H    0.035554    0.000000

  TOTAL  -0.002377    0.000000

-------
TIMINGS
-------

Total SCF time: 0 days 0 hours 0 min 27 sec 

Total time                  ....      27.441 sec
Sum of individual times     ....      24.167 sec  ( 88.1%)

Fock matrix formation       ....      16.448 sec  ( 59.9%)
  XC integration            ....       3.857 sec  ( 23.5% of F)
    Basis function eval.    ....       0.037 sec  (  1.0% of XC)
    Density eval.           ....       0.038 sec  (  1.0% of XC)
    XC-Functional eval.     ....       0.079 sec  (  2.1% of XC)
    XC-Potential eval.      ....       0.034 sec  (  0.9% of XC)
Diagonalization             ....       1.537 sec  (  5.6%)
Density matrix formation    ....       1.224 sec  (  4.5%)
Population analysis         ....       0.055 sec  (  0.2%)
Initial guess               ....       0.614 sec  (  2.2%)
Orbital Transformation      ....       0.000 sec  (  0.0%)
Orbital Orthonormalization  ....       0.000 sec  (  0.0%)
DIIS solution               ....       0.270 sec  (  1.0%)
SOSCF solution              ....       0.583 sec  (  2.1%)
Grid generation             ....       3.437 sec  ( 12.5%)


-------------------------------------------------------------------------------
                          DFT DISPERSION CORRECTION                            
                                                                               
                              DFTD3 V3.1  Rev 1                                
                              USING zero damping                               
-------------------------------------------------------------------------------
The omegaB97X-D3 functional is recognized. Fit by Chai et al.
Active option DFTDOPT                   ...         3   

molecular C6(AA) [au] = 208.662641 


            DFT-D V3
 parameters
 s6 scaling factor         :     1.0000 
 rs6 scaling factor        :     1.2810 
 s8 scaling factor         :     1.0000 
 rs8 scaling factor        :     1.0940 
 Damping factor alpha6     :    14.0000 
 Damping factor alpha8     :    16.0000 
 ad hoc parameters k1-k3   :    16.0000     1.3333    -4.0000 

 Edisp/kcal,au: -0.155500044197  -0.000247805068 
 E6   /kcal   :  -0.029641557 
 E8   /kcal   :  -0.125858487 
 % E8         :  80.937910720 

-------------------------   ----------------
Dispersion correction           -0.000247805
-------------------------   ----------------


-------------------------   --------------------
FINAL SINGLE POINT ENERGY      -115.730746034768
-------------------------   --------------------


                            ***************************************
                            *     ORCA property calculations      *
                            ***************************************

                                    ---------------------
                                    Active property flags
                                    ---------------------
   (+) Dipole Moment


------------------------------------------------------------------------------
                       ORCA ELECTRIC PROPERTIES CALCULATION
------------------------------------------------------------------------------

Dipole Moment Calculation                       ... on
Quadrupole Moment Calculation                   ... off
Polarizability Calculation                      ... off
GBWName                                         ... 84_charges.gbw
Electron density file                           ... 84_charges.scfp.tmp
The origin for moment calculation is the CENTER OF MASS  = (-1.448975,  5.852633 18.424958)

-------------
DIPOLE MOMENT
-------------
                                X             Y             Z
Electronic contribution:      0.67908       1.52883       1.05844
Nuclear contribution   :     -0.34088      -1.87876      -1.52354
                        -----------------------------------------
Total Dipole Moment    :      0.33819      -0.34992      -0.46510
                        -----------------------------------------
Magnitude (a.u.)       :      0.67315
Magnitude (Debye)      :      1.71102



--------------------
Rotational spectrum 
--------------------
 
Rotational constants in cm-1:     4.551385     0.833885     0.805028 
Rotational constants in MHz : 136447.091299 24999.252118 24134.133320 

 Dipole components along the rotational axes: 
x,y,z [a.u.] :    -0.338542    -0.581407    -0.022191 
x,y,z [Debye]:    -0.860505    -1.477819    -0.056405 

 
------------------------------------------------------------------------------
                      ORCA CHELPG CHARGES GENERATION
------------------------------------------------------------------------------

GBW file                           ... 84_charges.gbw

Reading the GBW file               ... done

Grid spacing                       ...     0.300000
Point Cut-Off                      ...     2.800000
Van-der-Waals Radii                ...        COSMO
Total charge                       ...            0


Number of points X direction       ...           27
Number of points Y direction       ...           25
Number of points Z direction       ...           24
Maximum number of possible points  ...        16200
Final number of points             ...         5889


CHELPG Charges            
--------------------------------
  0   C   :       0.122897
  1   O   :      -0.607981
  2   H   :       0.409321
  3   H   :       0.000689
  4   H   :       0.005560
  5   H   :       0.069514
--------------------------------
Total charge:    -0.000000
--------------------------------

CHELPG charges calculated...

Timings for individual parts in CHELPG calculation:
Grid generation                 ...        0.001 sec (=   0.000 min)
Potential calculation           ...        0.661 sec (=   0.011 min)
Fit to the potential            ...        0.001 sec (=   0.000 min)
------------------------------------------------------------------------------


Timings for individual modules:

Sum of individual times         ...       38.968 sec (=   0.649 min)
GTO integral calculation        ...        4.615 sec (=   0.077 min)  11.8 %
SCF iterations                  ...       33.485 sec (=   0.558 min)  85.9 %
CHELPG charge generation        ...        0.868 sec (=   0.014 min)   2.2 %
                             ****ORCA TERMINATED NORMALLY****
TOTAL RUN TIME: 0 days 0 hours 0 minutes 41 seconds 66 msec
