
                                 *****************
                                 * O   R   C   A *
                                 *****************

           --- An Ab Initio, DFT and Semiempirical electronic structure package ---

                  #######################################################
                  #                        -***-                        #
                  #          Department of theory and spectroscopy      #
                  #               Directorship: Frank Neese             #
                  #        Max Planck Institute fuer Kohlenforschung    #
                  #                Kaiser Wilhelm Platz 1               #
                  #                 D-45470 Muelheim/Ruhr               #
                  #                      Germany                        #
                  #                                                     #
                  #                  All rights reserved                #
                  #                        -***-                        #
                  #######################################################


                         Program Version 4.1.2  - RELEASE  -


 With contributions from (in alphabetic order):
   Daniel Aravena         : Magnetic Properties
   Michael Atanasov       : Ab Initio Ligand Field Theory
   Alexander A. Auer      : GIAO ZORA
   Ute Becker             : Parallelization
   Giovanni Bistoni       : ED, Open-shell LED
   Martin Brehm           : Molecular dynamics
   Dmytro Bykov           : SCF Hessian
   Vijay G. Chilkuri      : MRCI spin determinant printing
   Dipayan Datta          : RHF DLPNO-CCSD density
   Achintya Kumar Dutta   : EOM-CC, STEOM-CC
   Dmitry Ganyushin       : Spin-Orbit,Spin-Spin,Magnetic field MRCI
   Miquel Garcia          : C-PCM Hessian
   Yang Guo               : DLPNO-NEVPT2, CIM, IAO-localization
   Andreas Hansen         : Spin unrestricted coupled pair/coupled cluster methods
   Benjamin Helmich-Paris : CASSCF linear response (MC-RPA)
   Lee Huntington         : MR-EOM, pCC
   Robert Izsak           : Overlap fitted RIJCOSX, COSX-SCS-MP3, EOM
   Christian Kollmar      : KDIIS, OOCD, Brueckner-CCSD(T), CCSD density
   Simone Kossmann        : Meta GGA functionals, TD-DFT gradient, OOMP2, MP2 Hessian
   Martin Krupicka        : AUTO-CI
   Lucas Lang             : DCDCAS
   Dagmar Lenk            : GEPOL surface, SMD
   Dimitrios Liakos       : Extrapolation schemes; parallel MDCI
   Dimitrios Manganas     : ROCIS; embedding schemes
   Dimitrios Pantazis     : SARC Basis sets
   Taras Petrenko         : DFT Hessian,TD-DFT gradient, ASA, ECA, R-Raman, ABS, FL, XAS/XES, NRVS
   Peter Pinski           : DLPNO-MP2, DLPNO-MP2 Gradient
   Christoph Reimann      : Effective Core Potentials
   Marius Retegan         : Local ZFS, SOC
   Christoph Riplinger    : Optimizer, TS searches, QM/MM, DLPNO-CCSD(T), (RO)-DLPNO pert. Triples
   Tobias Risthaus        : Range-separated hybrids, TD-DFT gradient, RPA, STAB
   Michael Roemelt        : Restricted open shell CIS
   Masaaki Saitow         : Open-shell DLPNO
   Barbara Sandhoefer     : DKH picture change effects
   Avijit Sen             : IP-ROCIS
   Kantharuban Sivalingam : CASSCF convergence, NEVPT2, FIC-MRCI
   Bernardo de Souza      : ESD, SOC TD-DFT
   Georgi Stoychev        : AutoAux, RI-MP2 NMR
   Willem Van den Heuvel  : Paramagnetic NMR
   Boris Wezisla          : Elementary symmetry handling
   Frank Wennmohs         : Technical directorship


 We gratefully acknowledge several colleagues who have allowed us to
 interface, adapt or use parts of their codes:
   Stefan Grimme, W. Hujo, H. Kruse,             : VdW corrections, initial TS optimization,
                  C. Bannwarth                     DFT functionals, gCP, sTDA/sTD-DF
   Ed Valeev                                     : LibInt (2-el integral package), F12 methods
   Garnet Chan, S. Sharma, J. Yang, R. Olivares  : DMRG
   Ulf Ekstrom                                   : XCFun DFT Library
   Mihaly Kallay                                 : mrcc  (arbitrary order and MRCC methods)
   Andreas Klamt, Michael Diedenhofen            : otool_cosmo (COSMO solvation model)
   Jiri Pittner, Ondrej Demel                    : Mk-CCSD
   Frank Weinhold                                : gennbo (NPA and NBO analysis)
   Christopher J. Cramer and Donald G. Truhlar   : smd solvation model
   Lars Goerigk                                  : TD-DFT with DH, B97 family of functionals
   V. Asgeirsson, H. Jonsson                     : NEB implementation
   FAccTs GmbH                                   : IRC, NEB, NEB-TS, Multilevel


 Your calculation uses the libint2 library for the computation of 2-el integrals
 For citations please refer to: http://libint.valeyev.net

 This ORCA versions uses:
   CBLAS   interface :  Fast vector & matrix operations
   LAPACKE interface :  Fast linear algebra routines
   SCALAPACK package :  Parallel linear algebra routines


Your calculation utilizes the atom-pairwise dispersion correction
with the zero-damping scheme (D30)
Cite in your paper:
S.Grimme, J.Antony, S.Ehrlich and H.Krieg, J.Chem.Phys., 132, (2010), 154104 
   

XCFun DFT library Copyright 2009-2010 Ulf Ekstrom and contributors.
See http://admol.org/xcfun for more information. This is free soft-
ware; see the source code for copying conditions. There is ABSOLUTELY
NO WARRANTY; not even for MERCHANTABILITY or FITNESS FOR A PARTICULAR
PURPOSE. For details see the documentation. Scientific users of this 
library should cite U. Ekstrom, L. Visscher, R. Bast, A. J. Thorvald-
sen and K. Ruud; J.Chem.Theor.Comp. 2010, DOI: 10.1021/ct100117s
XCFun Version 0.99 
----- Orbital basis set information -----
Your calculation utilizes the basis: def2-TZVP
   F. Weigend and R. Ahlrichs, Phys. Chem. Chem. Phys. 7, 3297 (2005).

================================================================================
                                        WARNINGS
                       Please study these warnings very carefully!
================================================================================


WARNING: Geometry Optimization
  ===> : Switching off AutoStart
         For restart on a previous wavefunction, please use MOREAD

INFO   : the flag for use of LIBINT has been found!

================================================================================
                                       INPUT FILE
================================================================================
NAME = bonds_angles_[1[6[8][1][1]]]-[6[8[1]][1][1][1]]_4.in
|  1> #Run DFT geometry optimization
|  2> ! wB97X-D3 def2-TZVP TIGHTSCF Grid5 FinalGrid6 Opt CHELPG PAL4
|  3> 
|  4> %base "4_geo_opt"
|  5> %geom MaxIter 500
|  6> end
|  7> 
|  8> %geom
|  9>   Constraints
| 10>     { B 5 0 C }
| 11>   end
| 12> end
| 13> 
| 14> 
| 15> * xyz 0 1
| 16>   C                    3.011356             -1.180979            0.598460            
| 17>   O                    4.394721             -1.128132            0.874276            
| 18>   H                    4.772244             -0.379104            0.412461            
| 19>   H                    2.806482             -1.319047            -0.469381           
| 20>   H                    2.611680             -2.040347            1.135867            
| 21>   H                    2.484709             -0.284409            0.945691            
| 22> *
| 23> 
| 24>                          ****END OF INPUT****
================================================================================

                       *****************************
                       * Geometry Optimization Run *
                       *****************************

Geometry optimization settings:
Update method            Update   .... BFGS
Choice of coordinates    CoordSys .... Z-matrix Internals
Initial Hessian          InHess   .... Almoef's Model

Convergence Tolerances:
Energy Change            TolE     ....  5.0000e-06 Eh
Max. Gradient            TolMAXG  ....  3.0000e-04 Eh/bohr
RMS Gradient             TolRMSG  ....  1.0000e-04 Eh/bohr
Max. Displacement        TolMAXD  ....  4.0000e-03 bohr
RMS Displacement         TolRMSD  ....  2.0000e-03 bohr

------------------------------------------------------------------------------
                        ORCA OPTIMIZATION COORDINATE SETUP
------------------------------------------------------------------------------

The optimization will be done in new redundant internal coordinates
Making redundant internal coordinates   ...  (new redundants) done
Evaluating the initial hessian          ...  (Almloef) done
Evaluating the coordinates              ...  done
Calculating the B-matrix                .... done
Calculating the G-matrix                .... done
Diagonalizing the G-matrix              .... done
Imposing constraints:
 Iter   0:  RMS(Cart)=    0.0000000000 RMS(Int)=    0.0000000000
CONVERGED
The first mode is                       ....    3
The number of degrees of freedom        ....   12
Storing new coordinates                 .... done

    -----------------------------------------------------------------
                    Redundant Internal Coordinates


    -----------------------------------------------------------------
         Definition                    Initial Value    Approx d2E/dq
    -----------------------------------------------------------------
      1. B(O   1,C   0)                  1.4116         0.516942   
      2. B(H   2,O   1)                  0.9575         0.524720   
      3. B(H   3,C   0)                  1.0960         0.352188   
      4. B(H   4,C   0)                  1.0895         0.360731   
      5. B(H   5,C   0)                  1.0963         0.351926 C 
      6. A(O   1,C   0,H   4)          107.0169         0.340286   
      7. A(O   1,C   0,H   3)          112.2263         0.338927   
      8. A(O   1,C   0,H   5)          112.2281         0.338885   
      9. A(H   3,C   0,H   5)          108.7730         0.288786   
     10. A(H   4,C   0,H   5)          108.2172         0.289873   
     11. A(H   3,C   0,H   4)          108.2177         0.289907   
     12. A(C   0,O   1,H   2)          108.7499         0.359342   
     13. D(H   2,O   1,C   0,H   5)    -61.4305         0.021176   
     14. D(H   2,O   1,C   0,H   3)     61.4271         0.021176   
     15. D(H   2,O   1,C   0,H   4)    179.9981         0.021176   
    -----------------------------------------------------------------

Number of atoms                         .... 6
Number of degrees of freedom            .... 15

         *************************************************************
         *                GEOMETRY OPTIMIZATION CYCLE   1            *
         *************************************************************
---------------------------------
CARTESIAN COORDINATES (ANGSTROEM)
---------------------------------
  C      3.011356   -1.180979    0.598460
  O      4.394721   -1.128132    0.874276
  H      4.772244   -0.379104    0.412461
  H      2.806482   -1.319047   -0.469381
  H      2.611680   -2.040347    1.135867
  H      2.484709   -0.284409    0.945691

----------------------------
CARTESIAN COORDINATES (A.U.)
----------------------------
  NO LB      ZA    FRAG     MASS         X           Y           Z
   0 C     6.0000    0    12.011    5.690638   -2.231727    1.130926
   1 O     8.0000    0    15.999    8.304819   -2.131861    1.652142
   2 H     1.0000    0     1.008    9.018234   -0.716403    0.779438
   3 H     1.0000    0     1.008    5.303482   -2.492638   -0.887002
   4 H     1.0000    0     1.008    4.935360   -3.855697    2.146478
   5 H     1.0000    0     1.008    4.695420   -0.537455    1.787097

--------------------------------
INTERNAL COORDINATES (ANGSTROEM)
--------------------------------
 C      0   0   0     0.000000000000     0.00000000     0.00000000
 O      1   0   0     1.411582797603     0.00000000     0.00000000
 H      2   1   0     0.957517443464   108.74989122     0.00000000
 H      1   2   3     1.096047685907   112.22634922    61.42709104
 H      1   2   3     1.089523082844   107.01689638   179.99806723
 H      1   2   3     1.096250060374   112.22812651   298.56952224

---------------------------
INTERNAL COORDINATES (A.U.)
---------------------------
 C      0   0   0     0.000000000000     0.00000000     0.00000000
 O      1   0   0     2.667504902825     0.00000000     0.00000000
 H      2   1   0     1.809445736600   108.74989122     0.00000000
 H      1   2   3     2.071229956081   112.22634922    61.42709104
 H      1   2   3     2.058900243160   107.01689638   179.99806723
 H      1   2   3     2.071612388401   112.22812651   298.56952224

---------------------
BASIS SET INFORMATION
---------------------
There are 3 groups of distinct atoms

 Group   1 Type C   : 11s6p2d1f contracted to 5s3p2d1f pattern {62111/411/11/1}
 Group   2 Type O   : 11s6p2d1f contracted to 5s3p2d1f pattern {62111/411/11/1}
 Group   3 Type H   : 5s1p contracted to 3s1p pattern {311/1}

Atom   0C    basis set group =>   1
Atom   1O    basis set group =>   2
Atom   2H    basis set group =>   3
Atom   3H    basis set group =>   3
Atom   4H    basis set group =>   3
Atom   5H    basis set group =>   3


           ************************************************************
           *        Program running with 4 parallel MPI-processes     *
           *              working on a common directory               *
           ************************************************************
------------------------------------------------------------------------------
                           ORCA GTO INTEGRAL CALCULATION
------------------------------------------------------------------------------

                         BASIS SET STATISTICS AND STARTUP INFO

 # of primitive gaussian shells          ...   64
 # of primitive gaussian functions       ...  124
 # of contracted shells                  ...   38
 # of contracted basis functions         ...   86
 Highest angular momentum                ...    3
 Maximum contraction depth               ...    6
 Integral package used                   ... LIBINT
 Integral threshhold            Thresh   ...  2.500e-11
 Primitive cut-off              TCut     ...  2.500e-12


------------------------------ INTEGRAL EVALUATION ----------------------------


 * One electron integrals 
 Pre-screening matrix                    ... done
 Shell pair data                         ... done (   0.000 sec)



           ************************************************************
           *        Program running with 4 parallel MPI-processes     *
           *              working on a common directory               *
           ************************************************************
-------------------------------------------------------------------------------
                                 ORCA SCF
-------------------------------------------------------------------------------

------------
SCF SETTINGS
------------
Hamiltonian:
 Density Functional     Method          .... DFT(GTOs)
 Exchange Functional    Exchange        .... WB97X-D3
 Correlation Functional Correlation     .... WB97X-D3
 Gradients option       PostSCFGGA      .... off
 Hybrid DFT is turned on
   Fraction HF Exchange ScalHFX         ....  0.195728
   Scaling of DF-GGA-X  ScalDFX         ....  0.000000
   Scaling of DF-GGA-C  ScalDFC         ....  1.000000
   Scaling of DF-LDA-C  ScalLDAC        ....  1.000000
   Perturbative correction              ....  0.000000
   Density functional embedding theory  .... OFF
 Long-range corrected/Screened/Range-Separated Hybrid DFT is turned on
   Amount of maximum screened exact exchange              ....  0.804272
   Range separation parameter mu (erf(mu*r12)/r12)        ....  0.250000


General Settings:
 Integral files         IntName         .... 4_geo_opt
 Hartree-Fock type      HFTyp           .... RHF
 Total Charge           Charge          ....    0
 Multiplicity           Mult            ....    1
 Number of Electrons    NEL             ....   18
 Basis Dimension        Dim             ....   86
 Nuclear Repulsion      ENuc            ....     40.4374296584 Eh

Convergence Acceleration:
 DIIS                   CNVDIIS         .... on
   Start iteration      DIISMaxIt       ....    12
   Startup error        DIISStart       ....  0.200000
   # of expansion vecs  DIISMaxEq       ....     5
   Bias factor          DIISBfac        ....   1.050
   Max. coefficient     DIISMaxC        ....  10.000
 Newton-Raphson         CNVNR           .... off
 SOSCF                  CNVSOSCF        .... on
   Start iteration      SOSCFMaxIt      ....   150
   Startup grad/error   SOSCFStart      ....  0.003300
 Level Shifting         CNVShift        .... on
   Level shift para.    LevelShift      ....    0.2500
   Turn off err/grad.   ShiftErr        ....    0.0010
 Zerner damping         CNVZerner       .... off
 Static damping         CNVDamp         .... on
   Fraction old density DampFac         ....    0.7000
   Max. Damping (<1)    DampMax         ....    0.9800
   Min. Damping (>=0)   DampMin         ....    0.0000
   Turn off err/grad.   DampErr         ....    0.1000
 Fernandez-Rico         CNVRico         .... off

SCF Procedure:
 Maximum # iterations   MaxIter         ....   125
 SCF integral mode      SCFMode         .... Direct
   Integral package                     .... LIBINT
 Reset frequency        DirectResetFreq ....    20
 Integral Threshold     Thresh          ....  2.500e-11 Eh
 Primitive CutOff       TCut            ....  2.500e-12 Eh

Convergence Tolerance:
 Convergence Check Mode ConvCheckMode   .... Total+1el-Energy
 Convergence forced     ConvForced      .... 0
 Energy Change          TolE            ....  1.000e-08 Eh
 1-El. energy change                    ....  1.000e-05 Eh
 Orbital Gradient       TolG            ....  1.000e-05
 Orbital Rotation angle TolX            ....  1.000e-05
 DIIS Error             TolErr          ....  5.000e-07


Diagonalization of the overlap matrix:
Smallest eigenvalue                        ... 1.650e-03
Time for diagonalization                   ...    0.002 sec
Threshold for overlap eigenvalues          ... 1.000e-08
Number of eigenvalues below threshold      ... 0
Time for construction of square roots      ...    0.009 sec
Total time needed                          ...    0.011 sec

-------------------
DFT GRID GENERATION
-------------------

General Integration Accuracy     IntAcc      ...  5.010
Radial Grid Type                 RadialGrid  ... Gauss-Chebyshev
Angular Grid (max. acc.)         AngularGrid ... Lebedev-434
Angular grid pruning method      GridPruning ... 3 (G Style)
Weight generation scheme         WeightScheme... Becke
Basis function cutoff            BFCut       ...    1.0000e-11
Integration weight cutoff        WCut        ...    1.0000e-14
Grids for H and He will be reduced by one unit

# of grid points (after initial pruning)     ...  48308 (   0.0 sec)
# of grid points (after weights+screening)   ...  46676 (   0.0 sec)
nearest neighbour list constructed           ...    0.0 sec
Grid point re-assignment to atoms done       ...    0.0 sec
Grid point division into batches done        ...    0.3 sec
Reduced shell lists constructed in    0.3 sec

Total number of grid points                  ...    46676
Total number of batches                      ...      733
Average number of points per batch           ...       63
Average number of grid points per atom       ...     7779
Average number of shells per batch           ...    33.11 (87.13%)
Average number of basis functions per batch  ...    76.77 (89.27%)
Average number of large shells per batch     ...    30.61 (92.44%)
Average number of large basis fcns per batch ...    72.21 (94.05%)
Maximum spatial batch extension              ...  15.77, 14.99, 16.58 au
Average spatial batch extension              ...   0.40,  0.40,  0.43 au

Time for grid setup =    0.378 sec

------------------------------
INITIAL GUESS: MODEL POTENTIAL
------------------------------
Loading Hartree-Fock densities                     ... done
Calculating cut-offs                               ... done
Setting up the integral package                    ... done
Initializing the effective Hamiltonian             ... done
Starting the Coulomb interaction                   ... done (   0.0 sec)
Reading the grid                                   ... done
Mapping shells                                     ... done
Starting the XC term evaluation                    ... done (   0.1 sec)
  promolecular density results
     # of electrons  =     17.998045200
     EX              =    -14.430257517
     EC              =     -0.575115374
     EX+EC           =    -15.005372892
Transforming the Hamiltonian                       ... done (   0.0 sec)
Diagonalizing the Hamiltonian                      ... done (   0.0 sec)
Back transforming the eigenvectors                 ... done (   0.0 sec)
Now organizing SCF variables                       ... done
                      ------------------
                      INITIAL GUESS DONE (   0.5 sec)
                      ------------------
--------------
SCF ITERATIONS
--------------
ITER       Energy         Delta-E        Max-DP      RMS-DP      [F,P]     Damp
               ***  Starting incremental Fock matrix formation  ***
  0   -115.6512110834   0.000000000000 0.03696883  0.00147468  0.2523705 0.7000
  1   -115.6882785762  -0.037067492791 0.02203082  0.00104080  0.1262572 0.7000
                               ***Turning on DIIS***
  2   -115.7053420739  -0.017063497708 0.03156559  0.00188109  0.0490975 0.0000
  3   -115.7330770598  -0.027734985874 0.01774108  0.00068027  0.0611315 0.0000
  4   -115.7376013697  -0.004524309853 0.00406471  0.00013180  0.0065552 0.0000
                      *** Initiating the SOSCF procedure ***
                           *** Shutting down DIIS ***
                      *** Re-Reading the Fockian *** 
                      *** Removing any level shift *** 
ITER      Energy       Delta-E        Grad      Rot      Max-DP    RMS-DP
  5   -115.73769554  -0.0000941740  0.000489  0.000489  0.000678  0.000043
               *** Restarting incremental Fock matrix formation ***
  6   -115.73770369  -0.0000081414  0.000152  0.000203  0.000490  0.000026
  7   -115.73770441  -0.0000007223  0.000056  0.000109  0.000208  0.000011
  8   -115.73770446  -0.0000000574  0.000019  0.000017  0.000030  0.000001
  9   -115.73770447  -0.0000000056  0.000010  0.000008  0.000015  0.000001
 10   -115.73770447  -0.0000000015  0.000003  0.000003  0.000003  0.000000
                  ***Gradient check signals convergence***
              ***Rediagonalizing the Fockian in SOSCF/NRSCF***

               *****************************************************
               *                     SUCCESS                       *
               *           SCF CONVERGED AFTER  11 CYCLES          *
               *****************************************************

Setting up the final grid:

General Integration Accuracy     IntAcc      ...  5.340
Radial Grid Type                 RadialGrid  ... Gauss-Chebyshev
Angular Grid (max. acc.)         AngularGrid ... Lebedev-590
Angular grid pruning method      GridPruning ... 3 (G Style)
Weight generation scheme         WeightScheme... Becke
Basis function cutoff            BFCut       ...    1.0000e-11
Integration weight cutoff        WCut        ...    1.0000e-14
Grids for H and He will be reduced by one unit

# of grid points (after initial pruning)     ...  77324 (   0.0 sec)
# of grid points (after weights+screening)   ...  74512 (   0.0 sec)
nearest neighbour list constructed           ...    0.0 sec
Grid point re-assignment to atoms done       ...    0.0 sec
Grid point division into batches done        ...    0.8 sec
Reduced shell lists constructed in    0.8 sec

Total number of grid points                  ...    74512
Total number of batches                      ...     1167
Average number of points per batch           ...       63
Average number of grid points per atom       ...    12419
Average number of shells per batch           ...    32.94 (86.67%)
Average number of basis functions per batch  ...    76.36 (88.79%)
Average number of large shells per batch     ...    30.31 (92.02%)
Average number of large basis fcns per batch ...    71.49 (93.63%)
Maximum spatial batch extension              ...  13.18, 14.25, 15.48 au
Average spatial batch extension              ...   0.34,  0.36,  0.37 au

Final grid set up in    0.9 sec
Final integration                            ... done (   0.2 sec)
Change in XC energy                          ...    -0.000107565
Integrated number of electrons               ...    18.000000744
Previous integrated no of electrons          ...    18.000002272

----------------
TOTAL SCF ENERGY
----------------

Total Energy       :         -115.73781204 Eh           -3149.38598 eV

Components:
Nuclear Repulsion  :           40.43742966 Eh            1100.35840 eV
Electronic Energy  :         -156.17524170 Eh           -4249.74438 eV
One Electron Energy:         -237.29412822 Eh           -6457.10150 eV
Two Electron Energy:           81.11888652 Eh            2207.35712 eV

Virial components:
Potential Energy   :         -230.98813963 Eh           -6285.50683 eV
Kinetic Energy     :          115.25032760 Eh            3136.12085 eV
Virial Ratio       :            2.00422979


DFT components:
N(Alpha)           :        9.000000372130 electrons
N(Beta)            :        9.000000372130 electrons
N(Total)           :       18.000000744261 electrons
E(XC)              :      -10.655560282786 Eh       
DFET-embed. en.    :        0.000000000000 Eh       

---------------
SCF CONVERGENCE
---------------

  Last Energy change         ...   -5.5593e-11  Tolerance :   1.0000e-08
  Last MAX-Density change    ...    1.8660e-06  Tolerance :   1.0000e-07
  Last RMS-Density change    ...    7.8131e-08  Tolerance :   5.0000e-09
  Last Orbital Gradient      ...    1.3507e-06  Tolerance :   1.0000e-05
  Last Orbital Rotation      ...    7.8092e-07  Tolerance :   1.0000e-05

             **** THE GBW FILE WAS UPDATED (4_geo_opt.gbw) ****
             **** DENSITY FILE WAS UPDATED (4_geo_opt.scfp.tmp) ****
             **** ENERGY FILE WAS UPDATED (4_geo_opt.en.tmp) ****
----------------
ORBITAL ENERGIES
----------------

  NO   OCC          E(Eh)            E(eV) 
   0   2.0000     -19.228091      -523.2230 
   1   2.0000     -10.315140      -280.6892 
   2   2.0000      -1.136803       -30.9340 
   3   2.0000      -0.795331       -21.6420 
   4   2.0000      -0.611586       -16.6421 
   5   2.0000      -0.541758       -14.7420 
   6   2.0000      -0.526326       -14.3221 
   7   2.0000      -0.433797       -11.8042 
   8   2.0000      -0.373607       -10.1664 
   9   0.0000       0.116639         3.1739 
  10   0.0000       0.156671         4.2632 
  11   0.0000       0.202566         5.5121 
  12   0.0000       0.205098         5.5810 
  13   0.0000       0.226363         6.1597 
  14   0.0000       0.304326         8.2811 
  15   0.0000       0.313366         8.5271 
  16   0.0000       0.404496        11.0069 
  17   0.0000       0.452634        12.3168 
  18   0.0000       0.484987        13.1972 
  19   0.0000       0.535813        14.5802 
  20   0.0000       0.543627        14.7928 
  21   0.0000       0.567621        15.4457 
  22   0.0000       0.598556        16.2875 
  23   0.0000       0.603469        16.4212 
  24   0.0000       0.671325        18.2677 
  25   0.0000       0.779011        21.1980 
  26   0.0000       0.832197        22.6452 
  27   0.0000       0.861298        23.4371 
  28   0.0000       0.989576        26.9277 
  29   0.0000       1.013925        27.5903 
  30   0.0000       1.109767        30.1983 
  31   0.0000       1.382642        37.6236 
  32   0.0000       1.512891        41.1679 
  33   0.0000       1.553577        42.2750 
  34   0.0000       1.602831        43.6152 
  35   0.0000       1.613084        43.8942 
  36   0.0000       1.624103        44.1941 
  37   0.0000       1.660375        45.1811 
  38   0.0000       1.687935        45.9310 
  39   0.0000       1.774611        48.2896 
  40   0.0000       1.952076        53.1187 
  41   0.0000       2.030664        55.2572 
  42   0.0000       2.055225        55.9255 
  43   0.0000       2.094151        56.9848 
  44   0.0000       2.114647        57.5425 
  45   0.0000       2.268467        61.7281 
  46   0.0000       2.333486        63.4974 
  47   0.0000       2.345545        63.8255 
  48   0.0000       2.380984        64.7899 
  49   0.0000       2.429404        66.1074 
  50   0.0000       2.497571        67.9624 
  51   0.0000       2.596223        70.6468 
  52   0.0000       2.639821        71.8332 
  53   0.0000       2.707185        73.6662 
  54   0.0000       2.841854        77.3308 
  55   0.0000       2.871318        78.1325 
  56   0.0000       2.888402        78.5974 
  57   0.0000       2.992889        81.4406 
  58   0.0000       3.096032        84.2473 
  59   0.0000       3.172993        86.3415 
  60   0.0000       3.299216        89.7762 
  61   0.0000       3.408302        92.7446 
  62   0.0000       3.441768        93.6553 
  63   0.0000       3.488227        94.9195 
  64   0.0000       3.612584        98.3034 
  65   0.0000       3.645200        99.1909 
  66   0.0000       3.666992        99.7839 
  67   0.0000       4.005500       108.9952 
  68   0.0000       4.223590       114.9297 
  69   0.0000       4.273295       116.2823 
  70   0.0000       4.455653       121.2445 
  71   0.0000       4.564367       124.2027 
  72   0.0000       5.346068       145.4739 
  73   0.0000       5.425354       147.6314 
  74   0.0000       5.554347       151.1415 
  75   0.0000       5.826097       158.5362 
  76   0.0000       5.834082       158.7534 
  77   0.0000       5.985563       162.8754 
  78   0.0000       6.379588       173.5974 
  79   0.0000       6.530920       177.7154 
  80   0.0000       6.744994       183.5406 
  81   0.0000       6.804019       185.1468 
  82   0.0000       7.039399       191.5518 
  83   0.0000       7.215907       196.3548 
  84   0.0000      22.405823       609.6934 
  85   0.0000      43.664271      1188.1652 

                    ********************************
                    * MULLIKEN POPULATION ANALYSIS *
                    ********************************

-----------------------
MULLIKEN ATOMIC CHARGES
-----------------------
   0 C :   -0.150863
   1 O :   -0.477633
   2 H :    0.313011
   3 H :    0.098638
   4 H :    0.118235
   5 H :    0.098611
Sum of atomic charges:   -0.0000000

--------------------------------
MULLIKEN REDUCED ORBITAL CHARGES
--------------------------------
  0 C s       :     3.223134  s :     3.223134
      pz      :     1.047257  p :     2.826059
      px      :     0.702181
      py      :     1.076621
      dz2     :     0.011109  d :     0.094249
      dxz     :     0.032492
      dyz     :     0.002645
      dx2y2   :     0.012741
      dxy     :     0.035261
      f0      :     0.001356  f :     0.007420
      f+1     :     0.000956
      f-1     :     0.000175
      f+2     :     0.001464
      f-2     :     0.000123
      f+3     :     0.001361
      f-3     :     0.001986
  1 O s       :     3.792782  s :     3.792782
      pz      :     1.759405  p :     4.652589
      px      :     1.313625
      py      :     1.579559
      dz2     :     0.003136  d :     0.030577
      dxz     :     0.006477
      dyz     :     0.005835
      dx2y2   :     0.008936
      dxy     :     0.006192
      f0      :     0.000269  f :     0.001685
      f+1     :     0.000233
      f-1     :     0.000087
      f+2     :     0.000287
      f-2     :     0.000235
      f+3     :     0.000367
      f-3     :     0.000206
  2 H s       :     0.639297  s :     0.639297
      pz      :     0.017006  p :     0.047692
      px      :     0.012719
      py      :     0.017966
  3 H s       :     0.881997  s :     0.881997
      pz      :     0.012072  p :     0.019365
      px      :     0.003007
      py      :     0.004285
  4 H s       :     0.861546  s :     0.861546
      pz      :     0.006297  p :     0.020219
      px      :     0.004194
      py      :     0.009729
  5 H s       :     0.882031  s :     0.882031
      pz      :     0.004927  p :     0.019358
      px      :     0.004975
      py      :     0.009456


                     *******************************
                     * LOEWDIN POPULATION ANALYSIS *
                     *******************************

----------------------
LOEWDIN ATOMIC CHARGES
----------------------
   0 C :   -0.385186
   1 O :   -0.076105
   2 H :    0.165783
   3 H :    0.093392
   4 H :    0.108686
   5 H :    0.093429

-------------------------------
LOEWDIN REDUCED ORBITAL CHARGES
-------------------------------
  0 C s       :     2.862987  s :     2.862987
      pz      :     1.096645  p :     3.052231
      px      :     0.846058
      py      :     1.109528
      dz2     :     0.072413  d :     0.412949
      dxz     :     0.114039
      dyz     :     0.020708
      dx2y2   :     0.082144
      dxy     :     0.123645
      f0      :     0.007821  f :     0.057019
      f+1     :     0.007163
      f-1     :     0.000854
      f+2     :     0.012526
      f-2     :     0.004830
      f+3     :     0.011734
      f-3     :     0.012091
  1 O s       :     3.366284  s :     3.366284
      pz      :     1.699040  p :     4.633611
      px      :     1.381195
      py      :     1.553377
      dz2     :     0.006131  d :     0.071566
      dxz     :     0.017864
      dyz     :     0.008086
      dx2y2   :     0.019339
      dxy     :     0.020146
      f0      :     0.000483  f :     0.004645
      f+1     :     0.000622
      f-1     :     0.000072
      f+2     :     0.001050
      f-2     :     0.000560
      f+3     :     0.000890
      f-3     :     0.000966
  2 H s       :     0.675136  s :     0.675136
      pz      :     0.055755  p :     0.159081
      px      :     0.033904
      py      :     0.069422
  3 H s       :     0.846782  s :     0.846782
      pz      :     0.036184  p :     0.059826
      px      :     0.009713
      py      :     0.013929
  4 H s       :     0.831718  s :     0.831718
      pz      :     0.019212  p :     0.059596
      px      :     0.011608
      py      :     0.028776
  5 H s       :     0.846778  s :     0.846778
      pz      :     0.015594  p :     0.059793
      px      :     0.015194
      py      :     0.029005


                      *****************************
                      * MAYER POPULATION ANALYSIS *
                      *****************************

  NA   - Mulliken gross atomic population
  ZA   - Total nuclear charge
  QA   - Mulliken gross atomic charge
  VA   - Mayer's total valence
  BVA  - Mayer's bonded valence
  FA   - Mayer's free valence

  ATOM       NA         ZA         QA         VA         BVA        FA
  0 C      6.1509     6.0000    -0.1509     3.9349     3.9349     0.0000
  1 O      8.4776     8.0000    -0.4776     1.8881     1.8881    -0.0000
  2 H      0.6870     1.0000     0.3130     0.9136     0.9136     0.0000
  3 H      0.9014     1.0000     0.0986     0.9596     0.9596    -0.0000
  4 H      0.8818     1.0000     0.1182     0.9598     0.9598    -0.0000
  5 H      0.9014     1.0000     0.0986     0.9596     0.9596    -0.0000

  Mayer bond orders larger than 0.1
B(  0-C ,  1-O ) :   0.9987 B(  0-C ,  3-H ) :   0.9755 B(  0-C ,  4-H ) :   0.9749 
B(  0-C ,  5-H ) :   0.9755 B(  1-O ,  2-H ) :   0.9002 

-------
TIMINGS
-------

Total SCF time: 0 days 0 hours 0 min 8 sec 

Total time                  ....       8.707 sec
Sum of individual times     ....       8.315 sec  ( 95.5%)

Fock matrix formation       ....       6.768 sec  ( 77.7%)
  XC integration            ....       1.986 sec  ( 29.4% of F)
    Basis function eval.    ....       0.407 sec  ( 20.5% of XC)
    Density eval.           ....       0.266 sec  ( 13.4% of XC)
    XC-Functional eval.     ....       0.689 sec  ( 34.7% of XC)
    XC-Potential eval.      ....       0.268 sec  ( 13.5% of XC)
Diagonalization             ....       0.020 sec  (  0.2%)
Density matrix formation    ....       0.010 sec  (  0.1%)
Population analysis         ....       0.011 sec  (  0.1%)
Initial guess               ....       0.171 sec  (  2.0%)
Orbital Transformation      ....       0.000 sec  (  0.0%)
Orbital Orthonormalization  ....       0.000 sec  (  0.0%)
DIIS solution               ....       0.014 sec  (  0.2%)
SOSCF solution              ....       0.045 sec  (  0.5%)
Grid generation             ....       1.277 sec  ( 14.7%)


-------------------------------------------------------------------------------
                          DFT DISPERSION CORRECTION                            
                                                                               
                              DFTD3 V3.1  Rev 1                                
                              USING zero damping                               
-------------------------------------------------------------------------------
The omegaB97X-D3 functional is recognized. Fit by Chai et al.
Active option DFTDOPT                   ...         3   

molecular C6(AA) [au] = 208.715943 


            DFT-D V3
 parameters
 s6 scaling factor         :     1.0000 
 rs6 scaling factor        :     1.2810 
 s8 scaling factor         :     1.0000 
 rs8 scaling factor        :     1.0940 
 Damping factor alpha6     :    14.0000 
 Damping factor alpha8     :    16.0000 
 ad hoc parameters k1-k3   :    16.0000     1.3333    -4.0000 

 Edisp/kcal,au: -0.150165107499  -0.000239303306 
 E6   /kcal   :  -0.029611523 
 E8   /kcal   :  -0.120553584 
 % E8         :  80.280689940 

-------------------------   ----------------
Dispersion correction           -0.000239303
-------------------------   ----------------


-------------------------   --------------------
FINAL SINGLE POINT ENERGY      -115.738051340081
-------------------------   --------------------



           ************************************************************
           *        Program running with 4 parallel MPI-processes     *
           *              working on a common directory               *
           ************************************************************
------------------------------------------------------------------------------
                         ORCA SCF GRADIENT CALCULATION
------------------------------------------------------------------------------

Gradient of the Kohn-Sham DFT energy:
Kohn-Sham wavefunction type      ... RKS
Hartree-Fock exchange scaling    ...    0.196
Number of operators              ...    1
Number of atoms                  ...    6
Basis set dimensions             ...   86
Integral neglect threshold       ... 2.5e-11
Integral primitive cutoff        ... 2.5e-12

Nuclear repulsion gradient       ... done
One Electron Gradient            ... done
Pre-screening matrix             ... done
Starting the two electron gradient:
Two electron gradient done
Exchange-correlation gradient    ... done
Dispersion correction            ... done

------------------
CARTESIAN GRADIENT
------------------

   1   C   :   -0.000045600   -0.000063483   -0.000083806
   2   O   :    0.000039267   -0.000033947    0.000030650
   3   H   :    0.000000404    0.000010548   -0.000008890
   4   H   :    0.000010581    0.000001216   -0.000000547
   5   H   :    0.000041589   -0.000018142    0.000013760
   6   H   :   -0.000046242    0.000103809    0.000048832

Difference to translation invariance:
           :    0.0000000000   -0.0000000000   -0.0000000000

Norm of the cartesian gradient     ...    0.0001860594
RMS gradient                       ...    0.0000438546
MAX gradient                       ...    0.0001038087

-------
TIMINGS
-------

Total SCF gradient time            ...        1.766 sec

One electron gradient       ....       0.005 sec  (  0.3%)
Prescreening matrices       ....       0.023 sec  (  1.3%)
Two electron gradient       ....       0.841 sec  ( 47.6%)
XC gradient                 ....       0.589 sec  ( 33.4%)
------------------------------------------------------------------------------
                         ORCA GEOMETRY RELAXATION STEP
------------------------------------------------------------------------------

Reading the OPT-File                    .... done
Getting information on internals        .... done
Copying old internal coords+grads       .... done
Making the new internal coordinates     .... (new redundants).... done
Validating the new internal coordinates .... (new redundants).... done
Calculating the B-matrix                .... done
Calculating the G,G- and P matrices     .... done
Transforming gradient to internals      .... done
Projecting the internal gradient        .... done
Number of atoms                         ....   6
Number of internal coordinates          ....  15
Current Energy                          ....  -115.738051340 Eh
Current gradient norm                   ....     0.000186059 Eh/bohr
Maximum allowed component of the step   ....  0.300
Current trust radius                    ....  0.300
Evaluating the initial hessian          ....  (Almloef) done
Projecting the Hessian                  .... done
Forming the augmented Hessian           .... done
Diagonalizing the augmented Hessian     .... done
Last element of RFO vector              ....  0.999999960
Lowest eigenvalues of augmented Hessian:
 -0.000000025  0.021176451  0.181831943  0.192327924  0.313360743
Length of the computed step             ....  0.000283572
The final length of the internal step   ....  0.000283572
Converting the step to cartesian space:
 Initial RMS(Int)=    0.0000732179
Transforming coordinates:
 Iter   0:  RMS(Cart)=    0.0000675312 RMS(Int)=    1.6223010341
 Iter   1:  RMS(Cart)=    0.0000000070 RMS(Int)=    0.0000000075
Imposing constraints:
 Iter   0:  RMS(Cart)=    0.0000000003 RMS(Int)=    0.0000000000
CONVERGED
done
Storing new coordinates                 .... done

                                .--------------------.
          ----------------------|Geometry convergence|-------------------------
          Item                value                   Tolerance       Converged
          ---------------------------------------------------------------------
          RMS gradient        0.0000239312            0.0001000000      YES
          MAX gradient        0.0000661363            0.0003000000      YES
          RMS step            0.0000732179            0.0020000000      YES
          MAX step            0.0002132155            0.0040000000      YES
          ........................................................
          Max(Bonds)      0.0000      Max(Angles)    0.01
          Max(Dihed)        0.00      Max(Improp)    0.00
          ---------------------------------------------------------------------

                    ***********************HURRAY********************
                    ***        THE OPTIMIZATION HAS CONVERGED     ***
                    *************************************************


    ---------------------------------------------------------------------------
                         Redundant Internal Coordinates

                          --- Optimized Parameters ---  
                            (Angstroem and degrees)

        Definition                    OldVal   dE/dq     Step     FinalVal
    ----------------------------------------------------------------------------
     1. B(O   1,C   0)                1.4116  0.000043 -0.0000    1.4115   
     2. B(H   2,O   1)                0.9575  0.000012 -0.0000    0.9575   
     3. B(H   3,C   0)                1.0960 -0.000001  0.0000    1.0960   
     4. B(H   4,C   0)                1.0895  0.000006 -0.0000    1.0895   
     5. B(H   5,C   0)                1.0963  0.000123  0.0000    1.0963 C 
     6. A(O   1,C   0,H   4)          107.02 -0.000066    0.01    107.03   
     7. A(O   1,C   0,H   3)          112.23 -0.000004    0.00    112.23   
     8. A(O   1,C   0,H   5)          112.23 -0.000003    0.00    112.23   
     9. A(H   3,C   0,H   5)          108.77  0.000020   -0.01    108.77   
    10. A(H   4,C   0,H   5)          108.22  0.000030   -0.00    108.21   
    11. A(H   3,C   0,H   4)          108.22  0.000025   -0.00    108.21   
    12. A(C   0,O   1,H   2)          108.75 -0.000008    0.00    108.75   
    13. D(H   2,O   1,C   0,H   5)    -61.43 -0.000010    0.00    -61.43   
    14. D(H   2,O   1,C   0,H   3)     61.43  0.000011   -0.00     61.43   
    15. D(H   2,O   1,C   0,H   4)    180.00 -0.000003    0.00    180.00   
    ----------------------------------------------------------------------------
                 *******************************************************
                 *** FINAL ENERGY EVALUATION AT THE STATIONARY POINT ***
                 ***               (AFTER    1 CYCLES)               ***
                 *******************************************************
---------------------------------
CARTESIAN COORDINATES (ANGSTROEM)
---------------------------------
  C      3.011411   -1.181015    0.598491
  O      4.394741   -1.128109    0.874252
  H      4.772228   -0.379071    0.412449
  H      2.806494   -1.319048   -0.469348
  H      2.611577   -2.040331    1.135846
  H      2.484740   -0.284445    0.945684

----------------------------
CARTESIAN COORDINATES (A.U.)
----------------------------
  NO LB      ZA    FRAG     MASS         X           Y           Z
   0 C     6.0000    0    12.011    5.690743   -2.231795    1.130984
   1 O     8.0000    0    15.999    8.304856   -2.131816    1.652097
   2 H     1.0000    0     1.008    9.018205   -0.716340    0.779416
   3 H     1.0000    0     1.008    5.303504   -2.492639   -0.886940
   4 H     1.0000    0     1.008    4.935166   -3.855667    2.146438
   5 H     1.0000    0     1.008    4.695479   -0.537522    1.787085

--------------------------------
INTERNAL COORDINATES (ANGSTROEM)
--------------------------------
 C      0   0   0     0.000000000000     0.00000000     0.00000000
 O      1   0   0     1.411539202554     0.00000000     0.00000000
 H      2   1   0     0.957505208617   108.75124365     0.00000000
 H      1   2   3     1.096049721535   112.22706094    61.42540293
 H      1   2   3     1.089514728613   107.02911243   180.00038346
 H      1   2   3     1.096250061220   112.22847389   298.57371424

---------------------------
INTERNAL COORDINATES (A.U.)
---------------------------
 C      0   0   0     0.000000000000     0.00000000     0.00000000
 O      1   0   0     2.667422520121     0.00000000     0.00000000
 H      2   1   0     1.809422616089   108.75124365     0.00000000
 H      1   2   3     2.071233802862   112.22706094    61.42540293
 H      1   2   3     2.058884455951   107.02911243   180.00038346
 H      1   2   3     2.071612390000   112.22847389   298.57371424

---------------------
BASIS SET INFORMATION
---------------------
There are 3 groups of distinct atoms

 Group   1 Type C   : 11s6p2d1f contracted to 5s3p2d1f pattern {62111/411/11/1}
 Group   2 Type O   : 11s6p2d1f contracted to 5s3p2d1f pattern {62111/411/11/1}
 Group   3 Type H   : 5s1p contracted to 3s1p pattern {311/1}

Atom   0C    basis set group =>   1
Atom   1O    basis set group =>   2
Atom   2H    basis set group =>   3
Atom   3H    basis set group =>   3
Atom   4H    basis set group =>   3
Atom   5H    basis set group =>   3


           ************************************************************
           *        Program running with 4 parallel MPI-processes     *
           *              working on a common directory               *
           ************************************************************
------------------------------------------------------------------------------
                           ORCA GTO INTEGRAL CALCULATION
------------------------------------------------------------------------------

                         BASIS SET STATISTICS AND STARTUP INFO

 # of primitive gaussian shells          ...   64
 # of primitive gaussian functions       ...  124
 # of contracted shells                  ...   38
 # of contracted basis functions         ...   86
 Highest angular momentum                ...    3
 Maximum contraction depth               ...    6
 Integral package used                   ... LIBINT
 Integral threshhold            Thresh   ...  2.500e-11
 Primitive cut-off              TCut     ...  2.500e-12


------------------------------ INTEGRAL EVALUATION ----------------------------


 * One electron integrals 
 Pre-screening matrix                    ... done
 Shell pair data                         ... done (   0.000 sec)



           ************************************************************
           *        Program running with 4 parallel MPI-processes     *
           *              working on a common directory               *
           ************************************************************
-------------------------------------------------------------------------------
                                 ORCA SCF
-------------------------------------------------------------------------------

------------
SCF SETTINGS
------------
Hamiltonian:
 Density Functional     Method          .... DFT(GTOs)
 Exchange Functional    Exchange        .... WB97X-D3
 Correlation Functional Correlation     .... WB97X-D3
 Gradients option       PostSCFGGA      .... off
 Hybrid DFT is turned on
   Fraction HF Exchange ScalHFX         ....  0.195728
   Scaling of DF-GGA-X  ScalDFX         ....  0.000000
   Scaling of DF-GGA-C  ScalDFC         ....  1.000000
   Scaling of DF-LDA-C  ScalLDAC        ....  1.000000
   Perturbative correction              ....  0.000000
   Density functional embedding theory  .... OFF
 Long-range corrected/Screened/Range-Separated Hybrid DFT is turned on
   Amount of maximum screened exact exchange              ....  0.804272
   Range separation parameter mu (erf(mu*r12)/r12)        ....  0.250000


General Settings:
 Integral files         IntName         .... 4_geo_opt
 Hartree-Fock type      HFTyp           .... RHF
 Total Charge           Charge          ....    0
 Multiplicity           Mult            ....    1
 Number of Electrons    NEL             ....   18
 Basis Dimension        Dim             ....   86
 Nuclear Repulsion      ENuc            ....     40.4380588175 Eh

Convergence Acceleration:
 DIIS                   CNVDIIS         .... on
   Start iteration      DIISMaxIt       ....    12
   Startup error        DIISStart       ....  0.200000
   # of expansion vecs  DIISMaxEq       ....     5
   Bias factor          DIISBfac        ....   1.050
   Max. coefficient     DIISMaxC        ....  10.000
 Newton-Raphson         CNVNR           .... off
 SOSCF                  CNVSOSCF        .... on
   Start iteration      SOSCFMaxIt      ....   150
   Startup grad/error   SOSCFStart      ....  0.003300
 Level Shifting         CNVShift        .... on
   Level shift para.    LevelShift      ....    0.2500
   Turn off err/grad.   ShiftErr        ....    0.0010
 Zerner damping         CNVZerner       .... off
 Static damping         CNVDamp         .... on
   Fraction old density DampFac         ....    0.7000
   Max. Damping (<1)    DampMax         ....    0.9800
   Min. Damping (>=0)   DampMin         ....    0.0000
   Turn off err/grad.   DampErr         ....    0.1000
 Fernandez-Rico         CNVRico         .... off

SCF Procedure:
 Maximum # iterations   MaxIter         ....   125
 SCF integral mode      SCFMode         .... Direct
   Integral package                     .... LIBINT
 Reset frequency        DirectResetFreq ....    20
 Integral Threshold     Thresh          ....  2.500e-11 Eh
 Primitive CutOff       TCut            ....  2.500e-12 Eh

Convergence Tolerance:
 Convergence Check Mode ConvCheckMode   .... Total+1el-Energy
 Convergence forced     ConvForced      .... 0
 Energy Change          TolE            ....  1.000e-08 Eh
 1-El. energy change                    ....  1.000e-05 Eh
 Orbital Gradient       TolG            ....  1.000e-05
 Orbital Rotation angle TolX            ....  1.000e-05
 DIIS Error             TolErr          ....  5.000e-07


Diagonalization of the overlap matrix:
Smallest eigenvalue                        ... 1.650e-03
Time for diagonalization                   ...    0.003 sec
Threshold for overlap eigenvalues          ... 1.000e-08
Number of eigenvalues below threshold      ... 0
Time for construction of square roots      ...    0.004 sec
Total time needed                          ...    0.006 sec

---------------------
INITIAL GUESS: MOREAD
---------------------
Guess MOs are being read from file: 4_geo_opt.gbw
Input Geometry matches current geometry (good)
Input basis set matches current basis set (good)
MOs were renormalized
MOs were reorthogonalized (Cholesky)
                      ------------------
                      INITIAL GUESS DONE (   0.0 sec)
                      ------------------
-------------------
DFT GRID GENERATION
-------------------

General Integration Accuracy     IntAcc      ...  5.010
Radial Grid Type                 RadialGrid  ... Gauss-Chebyshev
Angular Grid (max. acc.)         AngularGrid ... Lebedev-434
Angular grid pruning method      GridPruning ... 3 (G Style)
Weight generation scheme         WeightScheme... Becke
Basis function cutoff            BFCut       ...    1.0000e-11
Integration weight cutoff        WCut        ...    1.0000e-14
Grids for H and He will be reduced by one unit

# of grid points (after initial pruning)     ...  48308 (   0.0 sec)
# of grid points (after weights+screening)   ...  46677 (   0.0 sec)
nearest neighbour list constructed           ...    0.0 sec
Grid point re-assignment to atoms done       ...    0.0 sec
Grid point division into batches done        ...    0.3 sec
Reduced shell lists constructed in    0.3 sec

Total number of grid points                  ...    46677
Total number of batches                      ...      733
Average number of points per batch           ...       63
Average number of grid points per atom       ...     7780
Average number of shells per batch           ...    33.14 (87.21%)
Average number of basis functions per batch  ...    76.85 (89.36%)
Average number of large shells per batch     ...    30.61 (92.37%)
Average number of large basis fcns per batch ...    72.31 (94.09%)
Maximum spatial batch extension              ...  15.77, 14.99, 16.58 au
Average spatial batch extension              ...   0.40,  0.42,  0.42 au

Time for grid setup =    0.400 sec

--------------
SCF ITERATIONS
--------------
ITER       Energy         Delta-E        Max-DP      RMS-DP      [F,P]     Damp
               ***  Starting incremental Fock matrix formation  ***
                      *** Initiating the SOSCF procedure ***
                      *** Re-Reading the Fockian *** 
                      *** Removing any level shift *** 
ITER      Energy       Delta-E        Grad      Rot      Max-DP    RMS-DP
  0   -115.73770447 -115.7377044702  0.000009  0.000009  0.000010  0.000001
               *** Restarting incremental Fock matrix formation ***
  1   -115.73770447  -0.0000000028  0.000005  0.000005  0.000006  0.000000
  2   -115.73770447  -0.0000000003  0.000003  0.000003  0.000003  0.000000
                 **** Energy Check signals convergence ****
              ***Rediagonalizing the Fockian in SOSCF/NRSCF***

               *****************************************************
               *                     SUCCESS                       *
               *           SCF CONVERGED AFTER   3 CYCLES          *
               *****************************************************

Setting up the final grid:

General Integration Accuracy     IntAcc      ...  5.340
Radial Grid Type                 RadialGrid  ... Gauss-Chebyshev
Angular Grid (max. acc.)         AngularGrid ... Lebedev-590
Angular grid pruning method      GridPruning ... 3 (G Style)
Weight generation scheme         WeightScheme... Becke
Basis function cutoff            BFCut       ...    1.0000e-11
Integration weight cutoff        WCut        ...    1.0000e-14
Grids for H and He will be reduced by one unit

# of grid points (after initial pruning)     ...  77324 (   0.0 sec)
# of grid points (after weights+screening)   ...  74512 (   0.0 sec)
nearest neighbour list constructed           ...    0.0 sec
Grid point re-assignment to atoms done       ...    0.0 sec
Grid point division into batches done        ...    0.8 sec
Reduced shell lists constructed in    0.8 sec

Total number of grid points                  ...    74512
Total number of batches                      ...     1167
Average number of points per batch           ...       63
Average number of grid points per atom       ...    12419
Average number of shells per batch           ...    32.93 (86.66%)
Average number of basis functions per batch  ...    76.37 (88.80%)
Average number of large shells per batch     ...    30.32 (92.07%)
Average number of large basis fcns per batch ...    71.54 (93.67%)
Maximum spatial batch extension              ...  13.18, 14.25, 15.48 au
Average spatial batch extension              ...   0.34,  0.36,  0.37 au

Final grid set up in    0.9 sec
Final integration                            ... done (   0.2 sec)
Change in XC energy                          ...    -0.000107588
Integrated number of electrons               ...    18.000000744
Previous integrated no of electrons          ...    18.000002270

----------------
TOTAL SCF ENERGY
----------------

Total Energy       :         -115.73781206 Eh           -3149.38598 eV

Components:
Nuclear Repulsion  :           40.43805882 Eh            1100.37552 eV
Electronic Energy  :         -156.17587088 Eh           -4249.76150 eV
One Electron Energy:         -237.29534559 Eh           -6457.13463 eV
Two Electron Energy:           81.11947471 Eh            2207.37313 eV

Virial components:
Potential Energy   :         -230.98825955 Eh           -6285.51009 eV
Kinetic Energy     :          115.25044749 Eh            3136.12411 eV
Virial Ratio       :            2.00422874


DFT components:
N(Alpha)           :        9.000000372107 electrons
N(Beta)            :        9.000000372107 electrons
N(Total)           :       18.000000744213 electrons
E(XC)              :      -10.655585013721 Eh       
DFET-embed. en.    :        0.000000000000 Eh       

---------------
SCF CONVERGENCE
---------------

  Last Energy change         ...   -1.0874e-10  Tolerance :   1.0000e-08
  Last MAX-Density change    ...    6.9025e-07  Tolerance :   1.0000e-07
  Last RMS-Density change    ...    5.1408e-08  Tolerance :   5.0000e-09
  Last Orbital Gradient      ...    5.1034e-07  Tolerance :   1.0000e-05
  Last Orbital Rotation      ...    5.6245e-07  Tolerance :   1.0000e-05

             **** THE GBW FILE WAS UPDATED (4_geo_opt.gbw) ****
             **** DENSITY FILE WAS UPDATED (4_geo_opt.scfp.tmp) ****
             **** ENERGY FILE WAS UPDATED (4_geo_opt.en.tmp) ****
----------------
ORBITAL ENERGIES
----------------

  NO   OCC          E(Eh)            E(eV) 
   0   2.0000     -19.228087      -523.2229 
   1   2.0000     -10.315132      -280.6890 
   2   2.0000      -1.136817       -30.9344 
   3   2.0000      -0.795332       -21.6421 
   4   2.0000      -0.611595       -16.6423 
   5   2.0000      -0.541755       -14.7419 
   6   2.0000      -0.526342       -14.3225 
   7   2.0000      -0.433790       -11.8040 
   8   2.0000      -0.373602       -10.1662 
   9   0.0000       0.116641         3.1740 
  10   0.0000       0.156670         4.2632 
  11   0.0000       0.202576         5.5124 
  12   0.0000       0.205101         5.5811 
  13   0.0000       0.226368         6.1598 
  14   0.0000       0.304341         8.2815 
  15   0.0000       0.313364         8.5271 
  16   0.0000       0.404515        11.0074 
  17   0.0000       0.452648        12.3172 
  18   0.0000       0.484974        13.1968 
  19   0.0000       0.535808        14.5801 
  20   0.0000       0.543630        14.7929 
  21   0.0000       0.567633        15.4461 
  22   0.0000       0.598558        16.2876 
  23   0.0000       0.603490        16.4218 
  24   0.0000       0.671318        18.2675 
  25   0.0000       0.779016        21.1981 
  26   0.0000       0.832188        22.6450 
  27   0.0000       0.861311        23.4375 
  28   0.0000       0.989578        26.9278 
  29   0.0000       1.013912        27.5900 
  30   0.0000       1.109781        30.1987 
  31   0.0000       1.382651        37.6239 
  32   0.0000       1.512897        41.1680 
  33   0.0000       1.553586        42.2752 
  34   0.0000       1.602827        43.6151 
  35   0.0000       1.613084        43.8942 
  36   0.0000       1.624132        44.1949 
  37   0.0000       1.660361        45.1807 
  38   0.0000       1.687949        45.9314 
  39   0.0000       1.774631        48.2902 
  40   0.0000       1.952092        53.1191 
  41   0.0000       2.030619        55.2559 
  42   0.0000       2.055229        55.9256 
  43   0.0000       2.094173        56.9853 
  44   0.0000       2.114623        57.5418 
  45   0.0000       2.268457        61.7279 
  46   0.0000       2.333510        63.4980 
  47   0.0000       2.345568        63.8261 
  48   0.0000       2.381025        64.7910 
  49   0.0000       2.429452        66.1087 
  50   0.0000       2.497604        67.9633 
  51   0.0000       2.596197        70.6461 
  52   0.0000       2.639832        71.8335 
  53   0.0000       2.707234        73.6676 
  54   0.0000       2.841941        77.3331 
  55   0.0000       2.871343        78.1332 
  56   0.0000       2.888357        78.5962 
  57   0.0000       2.992864        81.4400 
  58   0.0000       3.096046        84.2477 
  59   0.0000       3.173005        86.3419 
  60   0.0000       3.299137        89.7741 
  61   0.0000       3.408219        92.7423 
  62   0.0000       3.441862        93.6578 
  63   0.0000       3.488254        94.9202 
  64   0.0000       3.612600        98.3038 
  65   0.0000       3.645246        99.1922 
  66   0.0000       3.667013        99.7845 
  67   0.0000       4.005562       108.9969 
  68   0.0000       4.223625       114.9307 
  69   0.0000       4.273332       116.2833 
  70   0.0000       4.455558       121.2419 
  71   0.0000       4.564358       124.2025 
  72   0.0000       5.346089       145.4745 
  73   0.0000       5.425376       147.6320 
  74   0.0000       5.554372       151.1422 
  75   0.0000       5.826171       158.5382 
  76   0.0000       5.834132       158.7548 
  77   0.0000       5.985630       162.8773 
  78   0.0000       6.379626       173.5985 
  79   0.0000       6.530929       177.7156 
  80   0.0000       6.744992       183.5406 
  81   0.0000       6.804047       185.1475 
  82   0.0000       7.039393       191.5516 
  83   0.0000       7.215923       196.3553 
  84   0.0000      22.405966       609.6973 
  85   0.0000      43.664267      1188.1651 

                    ********************************
                    * MULLIKEN POPULATION ANALYSIS *
                    ********************************

-----------------------
MULLIKEN ATOMIC CHARGES
-----------------------
   0 C :   -0.150866
   1 O :   -0.477624
   2 H :    0.313020
   3 H :    0.098631
   4 H :    0.118234
   5 H :    0.098604
Sum of atomic charges:   -0.0000000

--------------------------------
MULLIKEN REDUCED ORBITAL CHARGES
--------------------------------
  0 C s       :     3.223116  s :     3.223116
      pz      :     1.047263  p :     2.826072
      px      :     0.702181
      py      :     1.076628
      dz2     :     0.011110  d :     0.094257
      dxz     :     0.032497
      dyz     :     0.002645
      dx2y2   :     0.012739
      dxy     :     0.035266
      f0      :     0.001356  f :     0.007421
      f+1     :     0.000956
      f-1     :     0.000175
      f+2     :     0.001464
      f-2     :     0.000123
      f+3     :     0.001361
      f-3     :     0.001986
  1 O s       :     3.792769  s :     3.792769
      pz      :     1.759410  p :     4.652592
      px      :     1.313643
      py      :     1.579539
      dz2     :     0.003136  d :     0.030578
      dxz     :     0.006477
      dyz     :     0.005835
      dx2y2   :     0.008938
      dxy     :     0.006192
      f0      :     0.000269  f :     0.001685
      f+1     :     0.000233
      f-1     :     0.000087
      f+2     :     0.000287
      f-2     :     0.000235
      f+3     :     0.000367
      f-3     :     0.000206
  2 H s       :     0.639286  s :     0.639286
      pz      :     0.017007  p :     0.047693
      px      :     0.012720
      py      :     0.017967
  3 H s       :     0.882003  s :     0.882003
      pz      :     0.012072  p :     0.019365
      px      :     0.003007
      py      :     0.004286
  4 H s       :     0.861546  s :     0.861546
      pz      :     0.006297  p :     0.020220
      px      :     0.004195
      py      :     0.009728
  5 H s       :     0.882037  s :     0.882037
      pz      :     0.004927  p :     0.019359
      px      :     0.004975
      py      :     0.009456


                     *******************************
                     * LOEWDIN POPULATION ANALYSIS *
                     *******************************

----------------------
LOEWDIN ATOMIC CHARGES
----------------------
   0 C :   -0.385222
   1 O :   -0.076066
   2 H :    0.165787
   3 H :    0.093392
   4 H :    0.108682
   5 H :    0.093428

-------------------------------
LOEWDIN REDUCED ORBITAL CHARGES
-------------------------------
  0 C s       :     2.862967  s :     2.862967
      pz      :     1.096643  p :     3.052244
      px      :     0.846073
      py      :     1.109528
      dz2     :     0.072415  d :     0.412985
      dxz     :     0.114055
      dyz     :     0.020703
      dx2y2   :     0.082145
      dxy     :     0.123666
      f0      :     0.007822  f :     0.057025
      f+1     :     0.007164
      f-1     :     0.000854
      f+2     :     0.012526
      f-2     :     0.004830
      f+3     :     0.011736
      f-3     :     0.012092
  1 O s       :     3.366247  s :     3.366247
      pz      :     1.699032  p :     4.633602
      px      :     1.381219
      py      :     1.553351
      dz2     :     0.006132  d :     0.071572
      dxz     :     0.017865
      dyz     :     0.008086
      dx2y2   :     0.019342
      dxy     :     0.020147
      f0      :     0.000483  f :     0.004645
      f+1     :     0.000622
      f-1     :     0.000072
      f+2     :     0.001051
      f-2     :     0.000560
      f+3     :     0.000890
      f-3     :     0.000966
  2 H s       :     0.675129  s :     0.675129
      pz      :     0.055756  p :     0.159085
      px      :     0.033904
      py      :     0.069425
  3 H s       :     0.846783  s :     0.846783
      pz      :     0.036183  p :     0.059825
      px      :     0.009713
      py      :     0.013929
  4 H s       :     0.831720  s :     0.831720
      pz      :     0.019212  p :     0.059598
      px      :     0.011611
      py      :     0.028775
  5 H s       :     0.846780  s :     0.846780
      pz      :     0.015593  p :     0.059793
      px      :     0.015194
      py      :     0.029005


                      *****************************
                      * MAYER POPULATION ANALYSIS *
                      *****************************

  NA   - Mulliken gross atomic population
  ZA   - Total nuclear charge
  QA   - Mulliken gross atomic charge
  VA   - Mayer's total valence
  BVA  - Mayer's bonded valence
  FA   - Mayer's free valence

  ATOM       NA         ZA         QA         VA         BVA        FA
  0 C      6.1509     6.0000    -0.1509     3.9349     3.9349     0.0000
  1 O      8.4776     8.0000    -0.4776     1.8881     1.8881    -0.0000
  2 H      0.6870     1.0000     0.3130     0.9136     0.9136    -0.0000
  3 H      0.9014     1.0000     0.0986     0.9596     0.9596    -0.0000
  4 H      0.8818     1.0000     0.1182     0.9598     0.9598    -0.0000
  5 H      0.9014     1.0000     0.0986     0.9596     0.9596    -0.0000

  Mayer bond orders larger than 0.1
B(  0-C ,  1-O ) :   0.9987 B(  0-C ,  3-H ) :   0.9755 B(  0-C ,  4-H ) :   0.9749 
B(  0-C ,  5-H ) :   0.9755 B(  1-O ,  2-H ) :   0.9002 

-------
TIMINGS
-------

Total SCF time: 0 days 0 hours 0 min 4 sec 

Total time                  ....       4.148 sec
Sum of individual times     ....       3.830 sec  ( 92.3%)

Fock matrix formation       ....       2.502 sec  ( 60.3%)
  XC integration            ....       0.760 sec  ( 30.4% of F)
    Basis function eval.    ....       0.170 sec  ( 22.4% of XC)
    Density eval.           ....       0.108 sec  ( 14.2% of XC)
    XC-Functional eval.     ....       0.270 sec  ( 35.5% of XC)
    XC-Potential eval.      ....       0.102 sec  ( 13.4% of XC)
Diagonalization             ....       0.003 sec  (  0.1%)
Density matrix formation    ....       0.002 sec  (  0.0%)
Population analysis         ....       0.011 sec  (  0.3%)
Initial guess               ....       0.004 sec  (  0.1%)
Orbital Transformation      ....       0.000 sec  (  0.0%)
Orbital Orthonormalization  ....       0.002 sec  (  0.0%)
DIIS solution               ....       0.000 sec  (  0.0%)
SOSCF solution              ....       0.009 sec  (  0.2%)
Grid generation             ....       1.299 sec  ( 31.3%)


-------------------------------------------------------------------------------
                          DFT DISPERSION CORRECTION                            
                                                                               
                              DFTD3 V3.1  Rev 1                                
                              USING zero damping                               
-------------------------------------------------------------------------------
The omegaB97X-D3 functional is recognized. Fit by Chai et al.
Active option DFTDOPT                   ...         3   

molecular C6(AA) [au] = 208.715889 


            DFT-D V3
 parameters
 s6 scaling factor         :     1.0000 
 rs6 scaling factor        :     1.2810 
 s8 scaling factor         :     1.0000 
 rs8 scaling factor        :     1.0940 
 Damping factor alpha6     :    14.0000 
 Damping factor alpha8     :    16.0000 
 ad hoc parameters k1-k3   :    16.0000     1.3333    -4.0000 

 Edisp/kcal,au: -0.150160525090  -0.000239296003 
 E6   /kcal   :  -0.029612596 
 E8   /kcal   :  -0.120547929 
 % E8         :  80.279373511 

-------------------------   ----------------
Dispersion correction           -0.000239296
-------------------------   ----------------


-------------------------   --------------------
FINAL SINGLE POINT ENERGY      -115.738051357432
-------------------------   --------------------

                                *** OPTIMIZATION RUN DONE ***

                            ***************************************
                            *     ORCA property calculations      *
                            ***************************************

                                    ---------------------
                                    Active property flags
                                    ---------------------
   (+) Dipole Moment


------------------------------------------------------------------------------
                       ORCA ELECTRIC PROPERTIES CALCULATION
------------------------------------------------------------------------------

Dipole Moment Calculation                       ... on
Quadrupole Moment Calculation                   ... off
Polarizability Calculation                      ... off
GBWName                                         ... 4_geo_opt.gbw
Electron density file                           ... 4_geo_opt.scfp.tmp
The origin for moment calculation is the CENTER OF MASS  = ( 7.033421, -2.140191  1.369226)

-------------
DIPOLE MOMENT
-------------
                                X             Y             Z
Electronic contribution:      1.75621      -0.02845       0.41975
Nuclear contribution   :     -2.06592       0.47597      -0.81740
                        -----------------------------------------
Total Dipole Moment    :     -0.30971       0.44752      -0.39765
                        -----------------------------------------
Magnitude (a.u.)       :      0.67403
Magnitude (Debye)      :      1.71325



--------------------
Rotational spectrum 
--------------------
 
Rotational constants in cm-1:     4.292624     0.833806     0.804923 
Rotational constants in MHz : 128689.634212 24996.874056 24130.993456 

 Dipole components along the rotational axes: 
x,y,z [a.u.] :    -0.332795     0.586145     0.000181 
x,y,z [Debye]:    -0.845898     1.489863     0.000461 

 
------------------------------------------------------------------------------
                      ORCA CHELPG CHARGES GENERATION
------------------------------------------------------------------------------

GBW file                           ... 4_geo_opt.gbw

Reading the GBW file               ... done

Grid spacing                       ...     0.300000
Point Cut-Off                      ...     2.800000
Van-der-Waals Radii                ...        COSMO
Total charge                       ...            0


Number of points X direction       ...           26
Number of points Y direction       ...           24
Number of points Z direction       ...           24
Maximum number of possible points  ...        14976
Final number of points             ...         5948


CHELPG Charges            
--------------------------------
  0   C   :       0.093789
  1   O   :      -0.606898
  2   H   :       0.403874
  3   H   :       0.014342
  4   H   :       0.081045
  5   H   :       0.013848
--------------------------------
Total charge:    -0.000000
--------------------------------

CHELPG charges calculated...

Timings for individual parts in CHELPG calculation:
Grid generation                 ...        0.002 sec (=   0.000 min)
Potential calculation           ...        0.759 sec (=   0.013 min)
Fit to the potential            ...        0.001 sec (=   0.000 min)
------------------------------------------------------------------------------


Timings for individual modules:

Sum of individual times         ...       30.740 sec (=   0.512 min)
GTO integral calculation        ...        5.718 sec (=   0.095 min)  18.6 %
SCF iterations                  ...       17.056 sec (=   0.284 min)  55.5 %
SCF Gradient evaluation         ...        2.296 sec (=   0.038 min)   7.5 %
Geometry relaxation             ...        3.082 sec (=   0.051 min)  10.0 %
CHELPG charge generation        ...        2.588 sec (=   0.043 min)   8.4 %
                             ****ORCA TERMINATED NORMALLY****
TOTAL RUN TIME: 0 days 0 hours 0 minutes 35 seconds 383 msec
