LAMMPS data file via vdw_self_gen.py, on 2021-08-05 13:21:47.233624

3000 atoms
4 atom types
2500 bonds
3 bond types
3500 angles
3 angle types
1500 dihedrals
1 dihedral types

-27.8187870812422524  27.8187870812422524 xlo xhi
-27.8187870812422524  27.8187870812422524 ylo yhi
-27.8187870812422524  27.8187870812422524 zlo zhi

Masses

1  1.007940
2  1.007940
3  12.011000
4  15.999400

Atoms

1         0    3    0.0994540000000000  -9.3822638379624088  -2.8768078021297376   3.3737099826955061  0 0 0
2         0    4   -0.5978230000000000  -9.1641178656548679  -4.0945948399820482   2.6855001896055701  0 0 0
3         0    1    0.0319320000000000  -10.0659446093526110 -2.2487177361125266   2.7973479426531447  0 0 0
4         0    1    0.0319320000000000  -8.4291612885538036  -2.3614821493549614   3.5157050717059026  0 0 0
5         0    1    0.0319320000000000  -9.8250914588108547  -3.0942441988236586   4.3485670746358931  0 0 0
6         0    2    0.4025730000000000  -8.7709951021499624  -3.8700113277585668   1.8250277928654819  0 0 0
7         1    3    0.0994540000000000   21.3618737223853792 -9.2885390666683794  -21.3880101006526289 0 0 0
8         1    4   -0.5978230000000000   22.2589783342536869 -8.6574936362704698  -22.2831138009234557 0 0 0
9         1    1    0.0319320000000000   21.9267686045260710 -9.8082703187937934  -20.6102679023019135 0 0 0
10        1    1    0.0319320000000000   20.7377720650378343 -9.9986139947825183  -21.9361143983549454 0 0 0
11        1    1    0.0319320000000000   20.7264785692531035 -8.5284322668211381  -20.9273237753704500 0 0 0
12        1    2    0.4025730000000000   22.8091350836744411 -9.3562248791482094  -22.6761764015271190 0 0 0
13        2    3    0.0994540000000000  -15.6257113129613803 -3.3112113628601731  -21.8819351084446119 0 0 0
14        2    4   -0.5978230000000000  -15.5382531310643408 -2.2910007221133011  -20.9043119862619768 0 0 0
15        2    1    0.0319320000000000  -15.2918103776549987 -4.2587912167422619  -21.4521534018558775 0 0 0
16        2    1    0.0319320000000000  -15.0029614604916652 -3.0488075902476428  -22.7406868099088122 0 0 0
17        2    1    0.0319320000000000  -16.6653823666486964 -3.4061122280941309  -22.2041138849066080 0 0 0
18        2    2    0.4025730000000000  -14.6051716219864378 -2.2299349341039925  -20.6378051877526261 0 0 0
19        3    3    0.0994540000000000  -9.3822659490413525   15.7374926092245726 -2.8766469369442191  0 0 0
20        3    4   -0.5978230000000000  -8.4566701314178356   14.8234493877207516 -3.4352371496411234  0 0 0
21        3    1    0.0319320000000000  -10.1534659951488138  15.1887937134825517 -2.3304878574670580  0 0 0
22        3    1    0.0319320000000000  -9.8372748632033673   16.3300872383507212 -3.6740966826736585  0 0 0
23        3    1    0.0319320000000000  -8.8541788815638416   16.4015747223812376 -2.1882863960585750  0 0 0
24        3    2    0.4025730000000000  -8.9537183421092958   14.2478925996476793 -4.0411030313768617  0 0 0
25        4    3    0.0994540000000000   2.8300210241467503  -15.5747860737084682  9.0377996121536999  0 0 0
26        4    4   -0.5978230000000000   3.3913295598082440  -15.2831721191371965  10.3043380771806632 0 0 0
27        4    1    0.0319320000000000   3.4547517098093392  -16.3075171289229246  8.5211503108710378  0 0 0
28        4    1    0.0319320000000000   2.7624130762204482  -14.6573250761885383  8.4480351788356778  0 0 0
29        4    1    0.0319320000000000   1.8288440694598496  -15.9885354425374260  9.1798467990230606  0 0 0
30        4    2    0.4025730000000000   4.2784986147168684  -14.9179544303129674  10.1464041844203603 0 0 0
31        5    3    0.0994540000000000  -2.8825206759692552   3.3314371430809251  -9.4639405825910927  0 0 0
32        5    4   -0.5978230000000000  -3.3874148231593115   2.0569507447825570  -9.1103985415469158  0 0 0
33        5    1    0.0319320000000000  -2.3868626383493536   3.7807072897521290  -8.5998866638725762  0 0 0
34        5    1    0.0319320000000000  -3.7037398952667120   3.9697570084458240  -9.7990142263427469  0 0 0
35        5    1    0.0319320000000000  -2.1603394547391730   3.2146759116514638  -10.2754467973779526 0 0 0
36        5    2    0.4025730000000000  -4.0249805666776908   2.1923299564485981  -8.3888873507532224  0 0 0
37        6    3    0.0994540000000000   3.4426015884094197  -21.7400437598082803  9.2140385393677704  0 0 0
38        6    4   -0.5978230000000000   2.3640255054319561  -20.8285530531943301  9.3144575569162331  0 0 0
39        6    1    0.0319320000000000   3.2278784165711341  -22.4759338285784978  8.4352770254489897  0 0 0
40        6    1    0.0319320000000000   3.5878875807613388  -22.2414889601336867  10.1740241095181396 0 0 0
41        6    1    0.0319320000000000   4.3493784850250696  -21.1897180797278146  8.9520871245823965  0 0 0
42        6    2    0.4025730000000000   1.5740864779625796  -21.3452686976879029  9.5476898066509648  0 0 0
43        7    3    0.0994540000000000   3.3240875778706664   9.3792892736606301   3.3595042286188215  0 0 0
44        7    4   -0.5978230000000000   2.9642153070438684   8.9048752451481619   2.0751176309230424  0 0 0
45        7    1    0.0319320000000000   2.9639355168039523   8.6826942160848493   4.1205269274067042  0 0 0
46        7    1    0.0319320000000000   2.8873196728313304   10.3681163777534788  3.5194490901771056  0 0 0
47        7    1    0.0319320000000000   4.4126947119499427   9.4502390793388482   3.4196862093599232  0 0 0
48        7    2    0.4025730000000000   1.9936052676617406   8.8523599704985276   2.0515739676759006  0 0 0
49        8    3    0.0994540000000000  -15.2380749244209763  2.9449704081451218  -3.3544866077998208  0 0 0
50        8    4   -0.5978230000000000  -15.6447116825294330  3.9169871297265946  -2.4089414243098655  0 0 0
51        8    1    0.0319320000000000  -16.0233623138348271  2.8119792554614556  -4.1026488888160788  0 0 0
52        8    1    0.0319320000000000  -15.0418912965819231  1.9986525128845378  -2.8444650115144432  0 0 0
53        8    1    0.0319320000000000  -14.3243254022886362  3.2878234565618767  -3.8456432387173463  0 0 0
54        8    2    0.4025730000000000  -16.4569246511517235  3.5854452913819155  -1.9896728830039443  0 0 0
55        9    3    0.0994540000000000   21.3864021024879953 -3.0918959258556762  -21.9107748943372584 0 0 0
56        9    4   -0.5978230000000000   22.5985891026761649 -2.7381830406149188  -21.2706846464116488 0 0 0
57        9    1    0.0319320000000000   20.5415251634031257 -2.7488446427805049  -21.3086050641538947 0 0 0
58        9    1    0.0319320000000000   21.3420291453810727 -4.1765967932365324  -22.0356054690407426 0 0 0
59        9    1    0.0319320000000000   21.3499764933499172 -2.6126979210114039  -22.8919801151000613 0 0 0
60        9    2    0.4025730000000000   22.6024843718322401 -3.1776397306624600  -20.4033561900869067 0 0 0
61        10   3    0.0994540000000000   9.6135141469542305  -21.4899906946280552 -3.1050929711059267  0 0 0
62        10   4   -0.5978230000000000   8.1996437531419559  -21.4677330016650139 -3.0365308918996412  0 0 0
63        10   1    0.0319320000000000   9.9269651783423285  -21.9900408138944279 -4.0247712075252871  0 0 0
64        10   1    0.0319320000000000   10.0132607950686463 -22.0182638091435052 -2.2360373128184765  0 0 0
65        10   1    0.0319320000000000   9.9851650860962895  -20.4625697167695968 -3.1068110488660539  0 0 0
66        10   2    0.4025730000000000   7.8990252028810435  -22.3924083430299206 -3.0366146219461179  0 0 0
67        11   3    0.0994540000000000  -9.3290346175489720  -15.6734532270804419  21.3421494269372936 0 0 0
68        11   4   -0.5978230000000000  -8.5889223978068632  -14.8165179913940559  22.1919267849126243 0 0 0
69        11   1    0.0319320000000000  -10.2014905400647642 -15.1407248953154205  20.9559747032668078 0 0 0
70        11   1    0.0319320000000000  -9.6463625702579350  -16.5572784486762217  21.9009727903543094 0 0 0
71        11   1    0.0319320000000000  -8.6941427591630873  -15.9811736353035982  20.5079182140123137 0 0 0
72        11   2    0.4025730000000000  -9.1776212776428903  -14.5601420730377722  22.9220644596471743 0 0 0
73        12   3    0.0994540000000000   9.0466172911574976  -21.9297753733777334  15.4278787835472713 0 0 0
74        12   4   -0.5978230000000000   9.6058480128961392  -20.6897008128661746  15.0358306508699826 0 0 0
75        12   1    0.0319320000000000   8.5951411252051528  -21.8303452331825270  16.4180265746359204 0 0 0
76        12   1    0.0319320000000000   9.8281009872183578  -22.6933487637905635  15.4470233296246402 0 0 0
77        12   1    0.0319320000000000   8.2777906734117845  -22.2165197765758258  14.7064881007822059 0 0 0
78        12   2    0.4025730000000000   10.2840760725955676 -20.4613164193376811  15.6940428313475007 0 0 0
79        13   3    0.0994540000000000   3.2572506208433945   8.9666854301301875   9.4007112618159159  0 0 0
80        13   4   -0.5978230000000000   2.2709753928186398   9.9817224425313125   9.3662628635872007  0 0 0
81        13   1    0.0319320000000000   4.2394588502679635   9.4169056109888292   9.5640468433597512  0 0 0
82        13   1    0.0319320000000000   3.2490604543076191   8.4169769364014293   8.4563166957077804  0 0 0
83        13   1    0.0319320000000000   3.0324065693953091   8.2807792259609130   10.2208936011225457 0 0 0
84        13   2    0.4025730000000000   2.4967061665285715   10.5745045164718388  8.6293428968913037  0 0 0
85        14   3    0.0994540000000000   15.1179471823283755 -9.2589379326192560  -3.2460245542070236  0 0 0
86        14   4   -0.5978230000000000   16.0526676248012272 -9.4823006864569219  -2.2064898367870520  0 0 0
87        14   1    0.0319320000000000   15.3391210843011141 -9.9229274402649814  -4.0852562076987988  0 0 0
88        14   1    0.0319320000000000   15.1721718616818411 -8.2162272777832150  -3.5684245818751421  0 0 0
89        14   1    0.0319320000000000   14.1134674845197186 -9.4704957247180221  -2.8718787599068456  0 0 0
90        14   2    0.4025730000000000   16.9339150331752535 -9.2866851006421172  -2.5677841136866344  0 0 0
91        15   3    0.0994540000000000  -15.5182529350333862  15.0896296208691272 -21.6551530757316399 0 0 0
92        15   4   -0.5978230000000000  -14.8213802068945100  16.2617259986133220 -21.2746479691230412 0 0 0
93        15   1    0.0319320000000000  -15.5547816527292948  15.0238527429976916 -22.7453130568908186 0 0 0
94        15   1    0.0319320000000000  -16.5315371483228475  15.1181870996326531 -21.2470266530327123 0 0 0
95        15   1    0.0319320000000000  -14.9920436666690922  14.2187010207592603 -21.2572731723711286 0 0 0
96        15   2    0.4025730000000000  -15.3112946611583851  17.0171937879354758 -21.6415924519811789 0 0 0
97        16   3    0.0994540000000000  -21.4776470526167103  15.3092196730552743  3.3929739183125149  0 0 0
98        16   4   -0.5978230000000000  -22.2860572721263566  15.3063010232069576  2.2307820010391968  0 0 0
99        16   1    0.0319320000000000  -21.8622041669705141  16.0447297322115787  4.1037836735070883  0 0 0
100       16   1    0.0319320000000000  -20.4477533753829164  15.5532526453523339  3.1211384433911693  0 0 0
101       16   1    0.0319320000000000  -21.5064679885245660  14.3163576413930098  3.8480734435120745  0 0 0
102       16   2    0.4025730000000000  -22.2408765235094599  16.1994295555883738  1.8491065743994484  0 0 0
103       17   3    0.0994540000000000  -21.4592922394240304 -9.3664888175040524  -21.9490617558951051 0 0 0
104       17   4   -0.5978230000000000  -22.4068718165244931 -8.6686533206154515  -21.1620775003700352 0 0 0
105       17   1    0.0319320000000000  -21.6503608738537707 -10.4404522610381214 -21.8842155664187388 0 0 0
106       17   1    0.0319320000000000  -20.4513167784521883 -9.1426488722120798  -21.5912786478948924 0 0 0
107       17   1    0.0319320000000000  -21.5545137778416880 -9.0438770111690623  -22.9885691965296779 0 0 0
108       17   2    0.4025730000000000  -22.2986508930343525 -8.9754538799457464  -20.2458037120220560 0 0 0
109       18   3    0.0994540000000000  -3.2900121528551649   9.3383982010354014   15.7612460525371620 0 0 0
110       18   4   -0.5978230000000000  -2.6811319735547503   8.5401360972547398   14.7631136990775804 0 0 0
111       18   1    0.0319320000000000  -4.0134380045255771   10.0138523536801891  15.2980760468050807 0 0 0
112       18   1    0.0319320000000000  -2.5238140013579158   9.9130924402492084   16.2873587091580276 0 0 0
113       18   1    0.0319320000000000  -3.8055275280058938   8.6872689485409342   16.4711726914437406 0 0 0
114       18   2    0.4025730000000000  -2.2319343938621961   9.1448261217240283   14.1483230717859136 0 0 0
115       19   3    0.0994540000000000   21.7725649519120594 -15.3212333241818541 -15.7734345342536599 0 0 0
116       19   4   -0.5978230000000000   20.8819822349457667 -15.3838247861398933 -14.6747214747013093 0 0 0
117       19   1    0.0319320000000000   21.7330547684276461 -16.2608749367971477 -16.3298716957038685 0 0 0
118       19   1    0.0319320000000000   22.7878845718769369 -15.1423591026750639 -15.4111395086257694 0 0 0
119       19   1    0.0319320000000000   21.4717223330254008 -14.4998316409767938 -16.4280445185873134 0 0 0
120       19   2    0.4025730000000000   21.1737975189427026 -16.1211664800367735 -14.1120785389355952 0 0 0
121       20   3    0.0994540000000000   3.4307931547485286   3.1550174877790660  -15.5897291870610299 0 0 0
122       20   4   -0.5978230000000000   2.4752566299833734   2.8372474229737779  -14.5946423617772432 0 0 0
123       20   1    0.0319320000000000   3.2187169100913273   4.1467844547410158  -15.9965850326564958 0 0 0
124       20   1    0.0319320000000000   3.3922183878954630   2.4071185675882916  -16.3855223737243136 0 0 0
125       20   1    0.0319320000000000   4.4262706965240026   3.1536309785403001  -15.1394584024071879 0 0 0
126       20   2    0.4025730000000000   1.6026022749187971   2.8460591425390547  -15.0233529131812471 0 0 0
127       21   3    0.0994540000000000  -15.4169023525493394  21.7658935756074747 -2.7450545702256326  0 0 0
128       21   4   -0.5978230000000000  -15.6073653164458346  20.7778796572121109 -3.7409350904391743  0 0 0
129       21   1    0.0319320000000000  -16.2287299079617178  22.4957002185327894 -2.7943294483610113  0 0 0
130       21   1    0.0319320000000000  -14.4562076844922167  22.2624644357007284 -2.9019326728176060  0 0 0
131       21   1    0.0319320000000000  -15.4204576750932159  21.2860293168884773 -1.7635053401889149  0 0 0
132       21   2    0.4025730000000000  -15.5996273342652003  21.2330391751889351 -4.6001009321291662  0 0 0
133       22   3    0.0994540000000000   9.4625414203190452  -9.4478751927970990   9.0060928314404016  0 0 0
134       22   4   -0.5978230000000000   8.6009439730551787  -9.3490465210008473   10.1250693220778807 0 0 0
135       22   1    0.0319320000000000   10.4437637059356501 -9.0415292870363420   9.2633778105604616  0 0 0
136       22   1    0.0319320000000000   9.0357975752880755  -8.8941001914166282   8.1662413314868445  0 0 0
137       22   1    0.0319320000000000   9.5672425806323211  -10.4998881230154524  8.7303616221396663  0 0 0
138       22   2    0.4025730000000000   8.5272849072542307  -8.4051348472181360   10.3464312447792519 0 0 0
139       23   3    0.0994540000000000  -22.0037065202572464  9.3261005165131188   9.2545384477105159  0 0 0
140       23   4   -0.5978230000000000  -20.6420618560063858  9.7132910177719527   9.2698020695642462  0 0 0
141       23   1    0.0319320000000000  -22.2502395750626931  8.8199693721149632   10.1911079576554631 0 0 0
142       23   1    0.0319320000000000  -22.1842989379325708  8.6583439159368059   8.4085980807431149  0 0 0
143       23   1    0.0319320000000000  -22.6254871957478443  10.2184634114342590  9.1506226478800095  0 0 0
144       23   2    0.4025730000000000  -20.1152122941237650  8.9014059287133964   9.3629049589311570  0 0 0
145       24   3    0.0994540000000000   21.5832843891871171  9.6064506168660202  -15.6086878291496429 0 0 0
146       24   4   -0.5978230000000000   22.1261919863630645  8.6840101771137554  -14.6820915685602298 0 0 0
147       24   1    0.0319320000000000   20.4935882386316202  9.6080039208014671  -15.5270201114673885 0 0 0
148       24   1    0.0319320000000000   21.8830351089672064  9.3263450629659683  -16.6215145606618293 0 0 0
149       24   1    0.0319320000000000   21.9648791041201115  10.6046104837528592 -15.3811277452780466 0 0 0
150       24   2    0.4025730000000000   21.7700275518613928  7.8081539009844185  -14.9088484556903733 0 0 0
151       25   3    0.0994540000000000   21.4954549463095717 -2.7589391168089241  -9.3596683363822457  0 0 0
152       25   4   -0.5978230000000000   21.4709099133409573 -4.0797882109272274  -8.8507667093231213  0 0 0
153       25   1    0.0319320000000000   21.7676567882424585 -2.7799750777882029  -10.4177672802405379 0 0 0
154       25   1    0.0319320000000000   22.2198965078378663 -2.1642468875003886  -8.7978381309549416  0 0 0
155       25   1    0.0319320000000000   20.5019937074329732 -2.3176446950120573  -9.2500542942127701  0 0 0
156       25   2    0.4025730000000000   22.3650945159666925 -4.4452640661247100  -8.9614794113708935  0 0 0
157       26   3    0.0994540000000000  -9.5520068776138860   3.2477075970837666   2.9030629500572571  0 0 0
158       26   4   -0.5978230000000000  -8.9636329010795208   2.4068798178287354   3.8782810607741305  0 0 0
159       26   1    0.0319320000000000  -9.2200912954523293   2.9412416101805743   1.9080652743866959  0 0 0
160       26   1    0.0319320000000000  -9.2629200003933772   4.2844582229354362   3.0920193487715202  0 0 0
161       26   1    0.0319320000000000  -10.6390595853259331  3.1577208395604650   2.9658326260667565  0 0 0
162       26   2    0.4025730000000000  -7.9998635026194549   2.5078499665725147   3.7985967941051406  0 0 0
163       27   3    0.0994540000000000   21.5748397484136234 -3.1679835578962052   21.2790815094145067 0 0 0
164       27   4   -0.5978230000000000   21.3728097720840289 -2.4971572440875045   22.5092853947384377 0 0 0
165       27   1    0.0319320000000000   21.3918412790167025 -4.2371378885618745   21.4114835744181953 0 0 0
166       27   1    0.0319320000000000   22.5992270414125258 -3.0024621219078926   20.9365016916044802 0 0 0
167       27   1    0.0319320000000000   20.8767132547396947 -2.7700711848199595   20.5388069790655514 0 0 0
168       27   2    0.4025730000000000   22.0055752834639371 -2.8710460568880651   23.1458472298893518 0 0 0
169       28   3    0.0994540000000000  -15.0850436766194118 -15.4665570964422958  15.4258285020209023 0 0 0
170       28   4   -0.5978230000000000  -16.3804409115194396 -14.9347997173796685  15.2174880409342190 0 0 0
171       28   1    0.0319320000000000  -15.0257301996900523 -16.4662864559222584  14.9886410723658994 0 0 0
172       28   1    0.0319320000000000  -14.8771081569059351 -15.5130213944948316  16.4976174234265933 0 0 0
173       28   1    0.0319320000000000  -14.3522049160018703 -14.8159965944739458  14.9426726034589343 0 0 0
174       28   2    0.4025730000000000  -17.0087624100708155 -15.5326290120945210  15.6570426286009621 0 0 0
175       29   3    0.0994540000000000  -3.1541919537074419   21.6218334909655248  8.9074986846258355  0 0 0
176       29   4   -0.5978230000000000  -2.8718036443825432   22.2501626908588115  10.1443029995512362 0 0 0
177       29   1    0.0319320000000000  -4.1186390448868835   21.1117116989547071  8.9685502614375814  0 0 0
178       29   1    0.0319320000000000  -2.3643274681549391   20.9038211786364272  8.6736183365700246  0 0 0
179       29   1    0.0319320000000000  -3.1957608137467806   22.3823474381206502  8.1241649089225625  0 0 0
180       29   2    0.4025730000000000  -2.8411351292829186   21.5511298815943988  10.8194389713772630 0 0 0
181       30   3    0.0994540000000000   9.0062566027212601   21.7109837588073056 -15.7021634661445528 0 0 0
182       30   4   -0.5978230000000000   10.3340161393627152  21.6472192457646599 -15.2151169038590730 0 0 0
183       30   1    0.0319320000000000   8.4091704787318342   22.3554025295774572 -15.0523001437309958 0 0 0
184       30   1    0.0319320000000000   8.5782810531591345   20.7058820491916720 -15.7292759301552358 0 0 0
185       30   1    0.0319320000000000   9.0181939791828132   22.1268300718810735 -16.7124359942507823 0 0 0
186       30   2    0.4025730000000000   10.2916559093267441  21.2746887239083549 -14.3179978326668724 0 0 0
187       31   3    0.0994540000000000   3.1209825311968946  -9.6169418843964163   21.5007632441593444 0 0 0
188       31   4   -0.5978230000000000   2.4627259667148040  -8.5237733228237609   22.1138753427232260 0 0 0
189       31   1    0.0319320000000000   3.9749169327957885  -9.9188858691708575   22.1121024276119407 0 0 0
190       31   1    0.0319320000000000   3.4581839404239116  -9.3272831988827924   20.5025044305634729 0 0 0
191       31   1    0.0319320000000000   2.4212537951939042  -10.4520043195728931  21.4184731264733657 0 0 0
192       31   2    0.4025730000000000   3.1077948878361967  -7.7986855676377864   22.1732878075991771 0 0 0
193       32   3    0.0994540000000000   21.4686399788323605 -8.9424136938558600  -9.2881220594833920  0 0 0
194       32   4   -0.5978230000000000   22.4449945693572914 -9.9109874567338334  -9.6240122700065651  0 0 0
195       32   1    0.0319320000000000   21.5210873205139492 -8.7264272232201794  -8.2182113855236949  0 0 0
196       32   1    0.0319320000000000   20.4759856172567183 -9.3193301004055176  -9.5463834470707631  0 0 0
197       32   1    0.0319320000000000   21.6668140434067844 -8.0279810532542086  -9.8522685156739129  0 0 0
198       32   2    0.4025730000000000   22.2434848497634192 -10.7104346350149111 -9.1085764847261750  0 0 0
199       33   3    0.0994540000000000   15.7063122227183438  3.1018636947199960  -3.3637853224374972  0 0 0
200       33   4   -0.5978230000000000   15.2152870335668648  2.7951205770736878  -2.0718764334304662  0 0 0
201       33   1    0.0319320000000000   15.6746227774358662  4.1829869730129206  -3.5195992036896659  0 0 0
202       33   1    0.0319320000000000   15.0959424433216434  2.5964900322440019  -4.1162305344462053  0 0 0
203       33   1    0.0319320000000000   16.7392769817490716  2.7547689679187375  -3.4427175422677498  0 0 0
204       33   2    0.4025730000000000   14.2978488120157294  3.1146278091921618  -2.0316490178899089  0 0 0
205       34   3    0.0994540000000000   3.3296740064604733  -9.3740212754539467   15.7205212388753903 0 0 0
206       34   4   -0.5978230000000000   2.0636851697015617  -9.2608435406034584   15.0970721875200020 0 0 0
207       34   1    0.0319320000000000   3.7333838752634003  -8.3767214056626198   15.9116260293578460 0 0 0
208       34   1    0.0319320000000000   4.0073708145145197  -9.9350518599416144   15.0723705441887379 0 0 0
209       34   1    0.0319320000000000   3.2126067223332524  -9.9049869109277662   16.6681983901420772 0 0 0
210       34   2    0.4025730000000000   2.1991374658882883  -8.7859491698950976   14.2595018807234659 0 0 0
211       35   3    0.0994540000000000   2.9680985697036486   21.5126993144073921 -3.4184700220666460  0 0 0
212       35   4   -0.5978230000000000   3.5679337972785721   22.4383897522127711 -2.5310464663640562  0 0 0
213       35   1    0.0319320000000000   1.9424898561954234   21.3121738977193118 -3.0990548479779791  0 0 0
214       35   1    0.0319320000000000   3.5466835505359624   20.5857060818792661 -3.4255812949721798  0 0 0
215       35   1    0.0319320000000000   2.9571823853376027   21.9404465713337729 -4.4237731401414013  0 0 0
216       35   2    0.4025730000000000   3.5634698951102863   22.0315907615780056 -1.6479322826392340  0 0 0
217       36   3    0.0994540000000000   9.4492364338699701  -9.0144272243337884   15.2552493192391925 0 0 0
218       36   4   -0.5978230000000000   8.3566207524266023  -9.5860994190772963   15.9506682782280791 0 0 0
219       36   1    0.0319320000000000   9.7423103518624572  -9.6707817490444548   14.4321963769053543 0 0 0
220       36   1    0.0319320000000000   10.2879492643114734 -8.8768901554918713   15.9421058880708415 0 0 0
221       36   1    0.0319320000000000   9.1465712257845766  -8.0441290543604378   14.8544545197956719 0 0 0
222       36   2    0.4025730000000000   8.6548861342294146  -10.4452465601766633  16.2946158885683765 0 0 0
223       37   3    0.0994540000000000   2.7929635452523351  -3.2983030192208260   3.0137455344265685  0 0 0
224       37   4   -0.5978230000000000   4.0275853092018350  -2.6605952185435142   2.7430731955414633  0 0 0
225       37   1    0.0319320000000000   2.0456873702068634  -2.5481703721680145   3.2839104089661202  0 0 0
226       37   1    0.0319320000000000   2.9215109802740327  -4.0111970777466857   3.8319051897921215  0 0 0
227       37   1    0.0319320000000000   2.4643209070142627  -3.8305656451587575   2.1179711479533023  0 0 0
228       37   2    0.4025730000000000   4.2937899422121708  -2.1970267213236956   3.5552525774819221  0 0 0
229       38   3    0.0994540000000000  -2.7461799924792469  -15.5533039659863075 -21.7326942570583270 0 0 0
230       38   4   -0.5978230000000000  -3.7519654626419205  -15.0381175124198485 -20.8799315936101308 0 0 0
231       38   1    0.0319320000000000  -2.6914464123679664  -14.9477500387932789 -22.6406691498110533 0 0 0
232       38   1    0.0319320000000000  -2.9786050205926782  -16.5903335286603522 -21.9870088178812644 0 0 0
233       38   1    0.0319320000000000  -1.7858666521863267  -15.5144067214907952 -21.2130727304391087 0 0 0
234       38   2    0.4025730000000000  -4.5917945138933618  -15.0853785034569299 -21.3676298303306353 0 0 0
235       39   3    0.0994540000000000  -21.4638019151690429  21.5898915920436529  15.7798689567461548 0 0 0
236       39   4   -0.5978230000000000  -22.1997250157059973  21.1884157387963334  14.6390534662064233 0 0 0
237       39   1    0.0319320000000000  -22.0288376040497056  22.3446987557305299  16.3322370815851521 0 0 0
238       39   1    0.0319320000000000  -20.4991966878896825  21.9975524728929202  15.4676559443162649 0 0 0
239       39   1    0.0319320000000000  -21.2991465352110296  20.7202024253201280  16.4203770341617350 0 0 0
240       39   2    0.4025730000000000  -22.3302986211050616  21.9802453943469551  14.0900977877917928 0 0 0
241       40   3    0.0994540000000000   3.1610120049533910   3.1067280629476195   15.8190347910631193 0 0 0
242       40   4   -0.5978230000000000   2.4240275120153800   2.7653385172908092   14.6594949300039428 0 0 0
243       40   1    0.0319320000000000   3.2652844479700658   4.1928313645485371   15.8791730091855676 0 0 0
244       40   1    0.0319320000000000   4.1468203180996754   2.6371161027957997   15.7769137747641714 0 0 0
245       40   1    0.0319320000000000   2.6249930257946303   2.7451056383476344   16.6997357131178248 0 0 0
246       40   2    0.4025730000000000   2.9237207453283558   3.0987383682311065   13.8949380526728934 0 0 0
247       41   3    0.0994540000000000  -2.7343109904722063   3.1618006806609555  -21.7112273783081235 0 0 0
248       41   4   -0.5978230000000000  -3.8253548087694496   2.4044705363411447  -21.2210232441355302 0 0 0
249       41   1    0.0319320000000000  -2.6828209094541520   4.1150104348003644  -21.1793912516955523 0 0 0
250       41   1    0.0319320000000000  -2.8625580007011679   3.3364201509353211  -22.7822961661870558 0 0 0
251       41   1    0.0319320000000000  -1.8104349375133129   2.6031966681277239  -21.5434899822068076 0 0 0
252       41   2    0.4025730000000000  -4.6303784072512091   2.9249595832959954  -21.3835783565974431 0 0 0
253       42   3    0.0994540000000000  -15.1587735204609491  9.0674292916102655  -15.3662793776618116 0 0 0
254       42   4   -0.5978230000000000  -16.4199995369907121  9.6741199192038199  -15.1530633564096480 0 0 0
255       42   1    0.0319320000000000  -14.4094215164216486  9.8395396698863156  -15.5571376161549964 0 0 0
256       42   1    0.0319320000000000  -15.2204245105989475  8.3859238174881394  -16.2182635603533640 0 0 0
257       42   1    0.0319320000000000  -14.8795730925124090  8.5049996550929734  -14.4721645846400442 0 0 0
258       42   2    0.4025730000000000  -16.6410980938228477  10.1655618092029911 -15.9623817755876516 0 0 0
259       43   3    0.0994540000000000  -3.0684091965206797  -21.7124433969815662 -15.0922047496843490 0 0 0
260       43   4   -0.5978230000000000  -3.7233091179065649  -21.3980855623806434 -16.3073223978541790 0 0 0
261       43   1    0.0319320000000000  -2.3595472221278060  -20.9189565490676905 -14.8432006275346122 0 0 0
262       43   1    0.0319320000000000  -2.5435221924435067  -22.6652726261045352 -15.1958276066215525 0 0 0
263       43   1    0.0319320000000000  -3.8140291789789846  -21.7943032367018183 -14.2978049470032111 0 0 0
264       43   2    0.4025730000000000  -3.0370411461839555  -21.3319450078942552 -16.9929299421096118 0 0 0
265       44   3    0.0994540000000000  -15.1801669896083133  9.0848891997149366   3.2550903899214312  0 0 0
266       44   4   -0.5978230000000000  -15.9615302702862927  10.2251660733845000  2.9493687369713841  0 0 0
267       44   1    0.0319320000000000  -14.7332605846518803  8.6917107922384567   2.3386870210367472  0 0 0
268       44   1    0.0319320000000000  -15.8109095964937403  8.3239184673708309   3.7211535956940613  0 0 0
269       44   1    0.0319320000000000  -14.3876133839474090  9.3733212714920349   3.9496312168166172  0 0 0
270       44   2    0.4025730000000000  -16.6558094458198767  9.9385683582837387   2.3319270937212515  0 0 0
271       45   3    0.0994540000000000   15.4250886313648152  15.3749341449982690  21.2756123944335442 0 0 0