LAMMPS data file via vdw_self_gen.py, on 2021-08-05 13:24:16.697219

5000 atoms
4 atom types
4500 bonds
3 bond types
7500 angles
4 angle types
6000 dihedrals
2 dihedral types

-35.4626909261445036  35.4626909261445036 xlo xhi
-35.4626909261445036  35.4626909261445036 ylo yhi
-35.4626909261445036  35.4626909261445036 zlo zhi

Masses

1  1.007940
2  12.011000
3  12.011000
4  15.999400

Atoms

1         0    3   -0.0003600000000000   19.5488059416987063 -19.7628334364591645  26.2906693238556777 0 0 0
2         0    2    0.1974500000000000   19.1259323595155735 -19.5618748611856788  27.7208861446963688 0 0 0
3         0    3   -0.0003600000000000   20.1650363710139189 -19.7155585350700129  28.7985550679605851 0 0 0
4         0    4   -0.3681440000000000   17.9607126241893731 -19.2792037611538873  28.0018695944103300 0 0 0
5         0    1    0.0285690000000000   20.6117179466568139 -20.0066444108060253  26.2239815153448959 0 0 0
6         0    1    0.0285690000000000   19.3676281564067096 -18.8420838545159590  25.7304459823497211 0 0 0
7         0    1    0.0285690000000000   18.9754048565576241 -20.5874414501788507  25.8597257673795298 0 0 0
8         0    1    0.0285690000000000   21.1399692282106280 -19.9661099855731550  28.3738339814708382 0 0 0
9         0    1    0.0285690000000000   19.8637633944769405 -20.5192755199635393  29.4751216303195385 0 0 0
10        0    1    0.0285690000000000   20.2559787109654224 -18.7739237747854020  29.3458404177808490 0 0 0
11        1    3   -0.0003600000000000   3.5843225861560124  -2.8105447642034900  -12.3610705508421344 0 0 0
12        1    2    0.1974500000000000   3.7386541554464343  -4.3043944185997995  -12.2645223924941913 0 0 0
13        1    3   -0.0003600000000000   4.4051759159680186  -4.8734106132152046  -11.0411273461103150 0 0 0
14        1    4   -0.3681440000000000   3.3304149498228481  -5.0415022639274270  -13.1626339984476406 0 0 0
15        1    1    0.0285690000000000   3.9999047308147997  -2.3132325127664859  -11.4814996378899945 0 0 0
16        1    1    0.0285690000000000   2.5219440637722368  -2.5635745235520861  -12.4304459810047838 0 0 0
17        1    1    0.0285690000000000   4.1151950757002602  -2.4517221468818611  -13.2464519707643955 0 0 0
18        1    1    0.0285690000000000   4.7035616855324394  -4.0816008299892035  -10.3499968906903277 0 0 0
19        1    1    0.0285690000000000   5.2985321402076035  -5.4255775584002137  -11.3436088046452976 0 0 0
20        1    1    0.0285690000000000   3.7052846145176970  -5.5374302864025395  -10.5276121809259156 0 0 0
21        2    3   -0.0003600000000000  -3.2692580887980869  -18.6662141779528525  27.1664619539143821 0 0 0
22        2    2    0.1974500000000000  -4.4226392344117018  -19.6314966002482585  27.2181180111635932 0 0 0
23        2    3   -0.0003600000000000  -4.3508374844710120  -20.7745770163544776  28.1943033406578891 0 0 0
24        2    4   -0.3681440000000000  -5.3991377736827220  -19.4897776591097873  26.4812611553739856 0 0 0
25        2    1    0.0285690000000000  -2.4925632204203403  -18.9406414334054602  27.8841720264369997 0 0 0
26        2    1    0.0285690000000000  -3.6295177669451717  -17.6636873948280062  27.4106102455707159 0 0 0
27        2    1    0.0285690000000000  -2.8356600628328792  -18.6790020701934587  26.1633125376801274 0 0 0
28        2    1    0.0285690000000000  -3.4197408079724005  -20.7480024631682838  28.7652769642484998 0 0 0
29        2    1    0.0285690000000000  -4.3948888888652258  -21.7184323737826368  27.6450627289720288 0 0 0
30        2    1    0.0285690000000000  -5.1887465895387717  -20.7031184006484530  28.8923504615501159 0 0 0
31        3    3   -0.0003600000000000  -20.1716050573889838 -3.1832854382773101   12.7699903759017008 0 0 0
32        3    2    0.1974500000000000  -19.1154615634625813 -3.9090269117990779   11.9809486761497954 0 0 0
33        3    3   -0.0003600000000000  -19.5478914600716536 -4.7141976174085096   10.7853606844707723 0 0 0
34        3    4   -0.3681440000000000  -17.9290405943444000 -3.8457065784981883   12.3049664238540419 0 0 0
35        3    1    0.0285690000000000  -21.1645483365127554 -3.3479385954475913   12.3449892375775967 0 0 0
36        3    1    0.0285690000000000  -19.9592918432944977 -2.1113442232883495   12.7520877049037669 0 0 0
37        3    1    0.0285690000000000  -20.1681378588283273 -3.5529592277125137   13.7984886975040091 0 0 0
38        3    1    0.0285690000000000  -20.6298715172648741 -4.6602863487054558   10.6436891007181398 0 0 0
39        3    1    0.0285690000000000  -19.2689756845113429 -5.7599282004971011   10.9374207030055040 0 0 0
40        3    1    0.0285690000000000  -19.0601256740122622 -4.3183167763042167   9.8910281497296832  0 0 0
41        4    3   -0.0003600000000000   20.3390872755622318  20.8318660991422320  19.8043950612059589 0 0 0
42        4    2    0.1974500000000000   20.1111086901001670  19.4134943445680115  19.3560939341755294 0 0 0
43        4    3   -0.0003600000000000   18.8426758005801389  18.7266707244328643  19.7851364100544522 0 0 0
44        4    4   -0.3681440000000000   20.9403639587858734  18.8304444897210850  18.6568227081695035 0 0 0
45        4    1    0.0285690000000000   19.5071311002562453  21.1914392700424656  20.4145008245281758 0 0 0
46        4    1    0.0285690000000000   20.4293181401423425  21.4755091104631930  18.9257384502624042 0 0 0
47        4    1    0.0285690000000000   21.2530343850932439  20.8764874815129993  20.4020480899904193 0 0 0
48        4    1    0.0285690000000000   18.2243529123505148  19.3867882420472988  20.3979820476581892 0 0 0
49        4    1    0.0285690000000000   19.0957921355528235  17.8416153329849720  20.3742694905541093 0 0 0
50        4    1    0.0285690000000000   18.2720851912681219  18.4406344947765923  18.8979625730929683 0 0 0
51        5    3   -0.0003600000000000   12.7851136834648731  26.9285448050242842  19.1201067241934766 0 0 0
52        5    2    0.1974500000000000   11.3601024403327955  27.2534394879510558  19.4785937840060654 0 0 0
53        5    3   -0.0003600000000000   11.1055482656582640  28.4131433493024055  20.4032641320883030 0 0 0
54        5    4   -0.3681440000000000   10.4272278473539668  26.5880894760957069  19.0273222062408891 0 0 0
55        5    1    0.0285690000000000   13.4809746570571516  27.6163303105738720  19.6063181895941838 0 0 0
56        5    1    0.0285690000000000   12.9110300853593483  27.0141511115917865  18.0378535214216775 0 0 0
57        5    1    0.0285690000000000   13.0146667605154107  25.9118370283942419  19.4488774822554298 0 0 0
58        5    1    0.0285690000000000   12.0411846074864979  28.8889839797596331  20.7062797042233804 0 0 0
59        5    1    0.0285690000000000   10.5933799532206478  28.0520527175465233  21.2986779397174573 0 0 0
60        5    1    0.0285690000000000   10.4897414533660598  29.1543571593288355  19.8876559059508473 0 0 0
61        6    3   -0.0003600000000000  -27.5580097448080963 -3.6336300592834925  -5.2052991788191783  0 0 0
62        6    2    0.1974500000000000  -27.6629083709585544 -3.3766811421099883  -3.7262115876687747  0 0 0
63        6    3   -0.0003600000000000  -27.5625245529416567 -4.5513674425732580  -2.7909248342694455  0 0 0
64        6    4   -0.3681440000000000  -27.8265070096627021 -2.2356392941543284  -3.2927941583606279  0 0 0
65        6    1    0.0285690000000000  -27.4152775119964360 -4.6969233024767787  -5.4119582555520900  0 0 0
66        6    1    0.0285690000000000  -26.7020640897725272 -3.0839636382685915  -5.6048980228295147  0 0 0
67        6    1    0.0285690000000000  -28.4797147377865585 -3.3055859350924894  -5.6924608440827118  0 0 0
68        6    1    0.0285690000000000  -27.4191411645245289 -5.4836349639051374  -3.3422655449880851  0 0 0
69        6    1    0.0285690000000000  -28.4862124220188342 -4.6285960952487430  -2.2118694248088389  0 0 0
70        6    1    0.0285690000000000  -26.7085698210984361 -4.4069680448255122  -2.1243080665590472  0 0 0
71        7    3   -0.0003600000000000  -3.9376409553593228   2.6717296652285984   11.5283630349658068 0 0 0
72        7    2    0.1974500000000000  -3.7979423502262621   4.1471327518981678   11.2668355953542481 0 0 0
73        7    3   -0.0003600000000000  -4.0198369835261492   5.0971593981689658   12.4126707796578888 0 0 0
74        7    4   -0.3681440000000000  -3.5097310806839057   4.5658640646111612   10.1451448923249163 0 0 0
75        7    1    0.0285690000000000  -4.1955383972034204   2.4787024223244245   12.5723469324886956 0 0 0
76        7    1    0.0285690000000000  -2.9884306736762634   2.1770080239998966   11.3076693247084847 0 0 0
77        7    1    0.0285690000000000  -4.7312402748515145   2.2687298338291111   10.8941148299281245 0 0 0
78        7    1    0.0285690000000000  -4.2659911847183647   4.5578713990511410   13.3304042213188723 0 0 0
79        7    1    0.0285690000000000  -4.8497209877990750   5.7652574915236521   12.1689369317668614 0 0 0
80        7    1    0.0285690000000000  -3.1069170298940323   5.6735348673032311   12.5824832113011205 0 0 0
81        8    3   -0.0003600000000000  -11.2571714507460268 -26.4120799958865433  19.6113032450850184 0 0 0
82        8    2    0.1974500000000000  -12.2969437891929534 -27.4120477974088637  20.0398641511639788 0 0 0
83        8    3   -0.0003600000000000  -12.1275147605056830 -28.8439440373007940  19.6089429415195404 0 0 0
84        8    4   -0.3681440000000000  -13.2606901916683562 -27.0677935342804616  20.7248995921695069 0 0 0
85        8    1    0.0285690000000000  -10.4765533013524177 -26.8867030200763608  19.0121027151735333 0 0 0
86        8    1    0.0285690000000000  -10.7950765077158444 -25.9725739687297192  20.4988606182270345 0 0 0
87        8    1    0.0285690000000000  -11.7339490693001274 -25.6351159597545966  19.0084023256932468 0 0 0
88        8    1    0.0285690000000000  -11.2226442904947934 -28.9713857927668883  19.0100889207715902 0 0 0
89        8    1    0.0285690000000000  -12.9886458267211307 -29.1409167674604284  19.0050148035426965 0 0 0
90        8    1    0.0285690000000000  -12.0497805661176542 -29.4783685519036851  20.4954702763455643 0 0 0
91        9    3   -0.0003600000000000  -19.9749240497586449  20.2811845573556262  18.5683366251130479 0 0 0
92        9    2    0.1974500000000000  -19.9351397982121696  19.1561752257967157  19.5670847351659525 0 0 0
93        9    3   -0.0003600000000000  -19.3018825972535666  19.4163251744283656  20.9072464597951146 0 0 0
94        9    4   -0.3681440000000000  -20.4081626411927068  18.0521836241310609  19.2949751710739932 0 0 0
95        9    1    0.0285690000000000  -19.5132430175642604  21.1848324133250472  18.9732368130776834 0 0 0
96        9    1    0.0285690000000000  -21.0157785735476530  20.5038788961581666  18.3203760099475481 0 0 0
97        9    1    0.0285690000000000  -19.4271232393021052  19.9833234591855735  17.6707439737059104 0 0 0
98        9    1    0.0285690000000000  -18.9362961214664942  20.4434400220240882  20.9782374822556790 0 0 0
99        9    1    0.0285690000000000  -18.4568737847213598  18.7365285238258217  21.0425436588513648 0 0 0
100       9    1    0.0285690000000000  -20.0455257666727178  19.2570776934612518  21.6921686607054198 0 0 0
101       10   3   -0.0003600000000000   20.5578172562108143  26.6206464542518191  27.7749246856069512 0 0 0
102       10   2    0.1974500000000000   19.8732238878079706  27.9325575484411424  28.0486905910477269 0 0 0
103       10   3   -0.0003600000000000   18.7524226682075863  28.3542563555377285  27.1372626626103823 0 0 0
104       10   4   -0.3681440000000000   20.2208811292713548  28.6420639303054010  28.9933211103260113 0 0 0
105       10   1    0.0285690000000000   20.1249390328557425  26.1239695869757256  26.9033734716454518 0 0 0
106       10   1    0.0285690000000000   20.4391924771011269  25.9664341253820297  28.6423287237782844 0 0 0
107       10   1    0.0285690000000000   21.6176747142651990  26.8030497231424256  27.5802178657353068 0 0 0
108       10   1    0.0285690000000000   18.5772853651138981  27.6100835458383465  26.3567552244208478 0 0 0
109       10   1    0.0285690000000000   19.0149932196250369  29.3022396106615552  26.6609716118513305 0 0 0
110       10   1    0.0285690000000000   17.8365198392329738  28.4656285450321533  27.7230834785460480 0 0 0
111       11   3   -0.0003600000000000   19.4912548231934224  19.0849549016635045  12.9480743131600402 0 0 0
112       11   2    0.1974500000000000   20.2866513703429590  19.8378214057597262  11.9159585590449719 0 0 0
113       11   3   -0.0003600000000000   19.5957006391329571  20.2444107458978948  10.6423815798142893 0 0 0
114       11   4   -0.3681440000000000   21.4712926847815631  20.1138226323489384  12.1084162438653724 0 0 0
115       11   1    0.0285690000000000   18.4628030757032882  18.9263664063998789  12.6151934372381831 0 0 0
116       11   1    0.0285690000000000   19.4711175644578134  19.6618031782759317  13.8761346191099708 0 0 0
117       11   1    0.0285690000000000   19.9557558774943224  18.1103392921226600  13.1179057407366102 0 0 0
118       11   1    0.0285690000000000   18.5523416118891937  19.9203022847330899  10.6386731609698924 0 0 0
119       11   1    0.0285690000000000   20.1063313747934203  19.7818357043284259  9.7940011850526876  0 0 0
120       11   1    0.0285690000000000   19.6217005679027601  21.3332930381616634  10.5522309148230011 0 0 0
121       12   3   -0.0003600000000000   3.8800003016604210  -5.0555620899383849  -19.0326126093439143 0 0 0
122       12   2    0.1974500000000000   3.7940538967518158  -4.1692262662157349  -20.2457690679959548 0 0 0
123       12   3   -0.0003600000000000   4.0795865234559150  -2.7013980738711796  -20.0764243209680373 0 0 0
124       12   4   -0.3681440000000000   3.4979930232148413  -4.6326910211537120  -21.3476493071738815 0 0 0
125       12   1    0.0285690000000000   4.1531332170464772  -4.4822404560331393  -18.1435829698329876 0 0 0
126       12   1    0.0285690000000000   4.6423438697008317  -5.8204455818319989  -19.2006629083500080 0 0 0
127       12   1    0.0285690000000000   2.9069209027551910  -5.5221867007790415  -18.8598194220243371 0 0 0
128       12   1    0.0285690000000000   4.3242316315968186  -2.4641682230118169  -19.0383834375612402 0 0 0
129       12   1    0.0285690000000000   3.1946561803419011  -2.1284042661763900  -20.3645997808523482 0 0 0
130       12   1    0.0285690000000000   4.9300703714141472  -2.4266672389269193  -20.7054457655889621 0 0 0
131       13   3   -0.0003600000000000   12.7836862826506419  3.0785604710240424  -3.7812556662982670  0 0 0
132       13   2    0.1974500000000000   11.7754701636764931  4.1128313395194622  -3.3587505206226012  0 0 0
133       13   3   -0.0003600000000000   10.8826398264482815  4.7088515529687633  -4.4134258358664846  0 0 0
134       13   4   -0.3681440000000000   11.6834971980594471  4.4621123543450381  -2.1814079928601737  0 0 0
135       13   1    0.0285690000000000   12.7284145131947639  2.8895082985711813  -4.8559078392789328  0 0 0
136       13   1    0.0285690000000000   12.5810250306830227  2.1434994613108449  -3.2530088490195990  0 0 0
137       13   1    0.0285690000000000   13.7877988338318058  3.4382974744766224  -3.5428719367623938  0 0 0
138       13   1    0.0285690000000000   11.0987622966643933  4.2870499133446440  -5.3978203509761959  0 0 0
139       13   1    0.0285690000000000   11.0472212071750331  5.7885361224126868  -4.4542046431413285  0 0 0
140       13   1    0.0285690000000000   9.8404544014311242   4.4937429299650518  -4.1643362831123385  0 0 0
141       14   3   -0.0003600000000000  -27.8050263975635055  20.9288352012825918 -11.4483544784877793 0 0 0
142       14   2    0.1974500000000000  -26.9750950749823630  19.7195771906648076 -11.7854533269809298 0 0 0
143       14   3   -0.0003600000000000  -27.6869887065298883  18.4643914273114547 -12.2125859566606465 0 0 0
144       14   4   -0.3681440000000000  -25.7462322176882878  19.7561894229383803 -11.7137086142071656 0 0 0
145       14   1    0.0285690000000000  -28.8711787458093383  20.7209018032261625 -11.5656398467252544 0 0 0
146       14   1    0.0285690000000000  -27.5347301194534495  21.7477303910006974 -12.1197753339848298 0 0 0
147       14   1    0.0285690000000000  -27.6186575020990581  21.2134143506717656 -10.4097203407201455 0 0 0
148       14   1    0.0285690000000000  -28.7699861724556918  18.6082926210827821 -12.2207738702819171 0 0 0
149       14   1    0.0285690000000000  -27.4484836227949494  17.6606499549143905 -11.5114556677117363 0 0 0
150       14   1    0.0285690000000000  -27.3645508661918129  18.1949672265986848 -13.2215023180545987 0 0 0
151       15   3   -0.0003600000000000  -28.1072901714649177  5.1300323056949892   27.5224790155260308 0 0 0
152       15   2    0.1974500000000000  -27.2914096188428097  3.9578706807737460   27.0480292088920642 0 0 0
153       15   3   -0.0003600000000000  -27.2138930486257635  2.7410749933034806   27.9301434661147461 0 0 0
154       15   4   -0.3681440000000000  -26.7029334594371512  3.9934413876320121   25.9668159015263207 0 0 0
155       15   1    0.0285690000000000  -28.5581068139117065  4.9284008742960408   28.4970466663666535 0 0 0
156       15   1    0.0285690000000000  -28.9068477591317112  5.3249291655963447   26.8033279514893827 0 0 0
157       15   1    0.0285690000000000  -27.4586007660694165  6.0048550122637909   27.6139493221795398 0 0 0
158       15   1    0.0285690000000000  -27.7922572001585699  2.8804963933489791   28.8465029415014982 0 0 0
159       15   1    0.0285690000000000  -26.1706755778437632  2.5609044289694025   28.2016293550716846 0 0 0
160       15   1    0.0285690000000000  -27.6189150100825458  1.8809846760595632   27.3910055969004134 0 0 0
161       16   3   -0.0003600000000000  -12.1265677836905610 -11.2735723443751272  10.6799095026209940 0 0 0
162       16   2    0.1974500000000000  -12.2726327696306363 -11.5764147773856187  12.1467694314317125 0 0 0
163       16   3   -0.0003600000000000  -11.2712490161848038 -12.5002581398568005  12.7858861237912915 0 0 0
164       16   4   -0.3681440000000000  -13.1871620190969754 -11.0814526665587909  12.8064969828621393 0 0 0
165       16   1    0.0285690000000000  -11.2658067758139513 -11.7939578872996602  10.2533390402887132 0 0 0
166       16   1    0.0285690000000000  -11.9827238039834416 -10.1981797700691104  10.5483986835623025 0 0 0
167       16   1    0.0285690000000000  -13.0267859541181323 -11.6023313652863145  10.1545484064199378 0 0 0
168       16   1    0.0285690000000000  -10.5325962663403541 -12.8455096804841773  12.0586642900007703 0 0 0
169       16   1    0.0285690000000000  -11.7937488744841694 -13.3707214766310258  13.1905541221665263 0 0 0
170       16   1    0.0285690000000000  -10.7496964904719547 -11.9665716458683544  13.5844031706706190 0 0 0
171       17   3   -0.0003600000000000   20.8998977004250435  27.6335325423796903  19.1954948160876704 0 0 0
172       17   2    0.1974500000000000   19.8145529355646772  27.1590495522097335  20.1237292711309763 0 0 0
173       17   3   -0.0003600000000000   18.4420316382290821  27.7591286470564604  19.9794500460563746 0 0 0
174       17   4   -0.3681440000000000   20.0434364811498824  26.3025931257528320  20.9785312327226769 0 0 0
175       17   1    0.0285690000000000   20.5243046502932351  28.3914283064528057  18.5039770239863302 0 0 0
176       17   1    0.0285690000000000   21.2704318588205759  26.7855861195169638  18.6139910101530823 0 0 0
177       17   1    0.0285690000000000   21.7095497945398073  28.0714241132478293  19.7847265092765454 0 0 0
178       17   1    0.0285690000000000   18.4173310063854636  28.4990843663709406  19.1760114865259581 0 0 0
179       17   1    0.0285690000000000   18.1662626683889741  28.2524698224285693  20.9148829252389383 0 0 0
180       17   1    0.0285690000000000   17.7271508558949691  26.9666328301525091  19.7441552685131363 0 0 0
181       18   3   -0.0003600000000000  -12.1872353352968812  27.7930602965086138  20.9328114452455800 0 0 0
182       18   2    0.1974500000000000  -11.2237421985118040  27.6634383722931894  19.7840705248328348 0 0 0
183       18   3   -0.0003600000000000  -11.7770725903589408  27.3271969747845880  18.4255811702334924 0 0 0
184       18   4   -0.3681440000000000  -10.0148085426578568  27.8281331801450911  19.9512432421351242 0 0 0
185       18   1    0.0285690000000000  -13.2151075407307399  27.6157847993229986  20.6076574621942790 0 0 0
186       18   1    0.0285690000000000  -12.1219853364645900  28.8038893211338447  21.3432045440271949 0 0 0
187       18   1    0.0285690000000000  -11.9330739519546256  27.0561329946029936  21.6988530058176359 0 0 0
188       18   1    0.0285690000000000  -12.8634958909610972  27.2164377558122901  18.4583670516667624 0 0 0
189       18   1    0.0285690000000000  -11.3417714964048386  26.3845525767471543  18.0844020267458028 0 0 0
190       18   1    0.0285690000000000  -11.5306768704736342  28.1323031542175883  17.7287591167930074 0 0 0
191       19   3   -0.0003600000000000   5.1578769920713805   11.5554473423850865 -12.1975820073872736 0 0 0
192       19   2    0.1974500000000000   3.8059560080603907   11.2696973661445501 -11.6014417770980671 0 0 0
193       19   3   -0.0003600000000000   2.7952770471061816   12.3840385938362481 -11.5627404508796694 0 0 0
194       19   4   -0.3681440000000000   3.5339771206916146   10.1537944256470407 -11.1571673195668559 0 0 0
195       19   1    0.0285690000000000   5.2270632652771329   12.5903951132607546 -12.5407574092729295 0 0 0
196       19   1    0.0285690000000000   5.3197406274633163   10.8942318666964297 -13.0525964126153475 0 0 0
197       19   1    0.0285690000000000   5.9267561823247927   11.3887311003227634 -11.4389582435702621 0 0 0
198       19   1    0.0285690000000000   3.2017520918488698   13.3006864270562115 -11.9965525006830003 0 0 0
199       19   1    0.0285690000000000   2.5208009234137498   12.5832255760615919 -10.5237716760193649 0 0 0
200       19   1    0.0285690000000000   1.9137896596809245   12.0887219424043391 -12.1374019567222433 0 0 0
201       20   3   -0.0003600000000000   4.1660173098216884   13.0871254208429644  27.7835081171736249 0 0 0
202       20   2    0.1974500000000000   3.8298127811312912   11.6696204050696881  28.1608310759843121 0 0 0
203       20   3   -0.0003600000000000   3.7742570620082168   10.6363708337905720  27.0681119848981240 0 0 0
204       20   4   -0.3681440000000000   3.6061458746191914   11.3633613333758010  29.3324838305735298 0 0 0
205       20   1    0.0285690000000000   4.3336339559961647   13.1799947199642347  26.7078906486905474 0 0 0
206       20   1    0.0285690000000000   5.0775157212994433   13.3903456458007710  28.3047408060468868 0 0 0
207       20   1    0.0285690000000000   3.3349006447487439   13.7393821692035338  28.0633040300389496 0 0 0
208       20   1    0.0285690000000000   3.9978088719415870   11.0791150617307270  26.0946335600723955 0 0 0
209       20   1    0.0285690000000000   2.7701451506241241   10.2063437496949803  27.0319915217115643 0 0 0
210       20   1    0.0285690000000000   4.5127525457479170   9.8573104143417467   27.2734338503784031 0 0 0
211       21   3   -0.0003600000000000  -20.8210787161474720  20.2390777302022791  27.9724623605327167 0 0 0
212       21   2    0.1974500000000000  -19.5723463228413159  19.4088648022087185  28.0995075265179572 0 0 0
213       21   3   -0.0003600000000000  -18.6516610430363912  19.3219609597485373  26.9122786251614592 0 0 0
214       21   4   -0.3681440000000000  -19.3108813622559694  18.8164472395441429  29.1470137017898097 0 0 0
215       21   1    0.0285690000000000  -20.8948614850142746  20.6916478006720475  26.9807923450369671 0 0 0
216       21   1    0.0285690000000000  -20.7980572363331824  21.0377587771928418  28.7181392151723145 0 0 0
217       21   1    0.0285690000000000  -21.6938879504569542  19.6001079028249379  28.1286709704282138 0 0 0
218       21   1    0.0285690000000000  -19.0351520882885481  19.9054647717427713  26.0719715227878091 0 0 0
219       21   1    0.0285690000000000  -18.5664244154199132  18.2779881181508337  26.6003104620117981 0 0 0
220       21   1    0.0285690000000000  -17.6705989698976538  19.7156314874046181  27.1897826961292957 0 0 0
221       22   3   -0.0003600000000000   19.9898274483791845  20.1689599922713789  28.7624285414207250 0 0 0
222       22   2    0.1974500000000000   20.0053829588602881  19.1768142452473747  27.6309996161868696 0 0 0
223       22   3   -0.0003600000000000   19.2490417676396142  19.5174035198567744  26.3753431842820660 0 0 0
224       22   4   -0.3681440000000000   20.6206117672473788  18.1146077818312108  27.7300078168953341 0 0 0
225       22   1    0.0285690000000000   19.3989591278415716  21.0512942147213735  28.5054578563637939 0 0 0
226       22   1    0.0285690000000000   21.0137930796192371  20.4862873818336091  28.9751562753266896 0 0 0
227       22   1    0.0285690000000000   19.5477114877609175  19.6995672290396051  29.6448589583898148 0 0 0
228       22   1    0.0285690000000000   18.7639395770269140  20.4927542131928355  26.4591584357081402 0 0 0
229       22   1    0.0285690000000000   18.4798014328438889  18.7602741479306268  26.2036075357111571 0 0 0
230       22   1    0.0285690000000000   19.9458809424727228  19.5469868637669393  25.5339112052837507 0 0 0
231       23   3   -0.0003600000000000  -3.9584020863838720  -26.2894941942768590 -11.9748841880528776 0 0 0
232       23   2    0.1974500000000000  -4.1715554323957615  -27.5956291289880227 -11.2584319890116653 0 0 0
233       23   3   -0.0003600000000000  -3.7972940379405462  -28.8673794390463918 -11.9706859352884472 0 0 0
234       23   4   -0.3681440000000000  -4.6397216021062286  -27.6230308617504257 -10.1197216377896133 0 0 0
235       23   1    0.0285690000000000  -3.5375183221838387  -26.4495473037817632 -12.9703302410716361 0 0 0
236       23   1    0.0285690000000000  -3.2633456226611677  -25.6736817889945250 -11.3985796083056226 0 0 0
237       23   1    0.0285690000000000  -4.9184589339509364  -25.7782352741906990 -12.0815832774207639 0 0 0
238       23   1    0.0285690000000000  -3.3994059818410696  -28.6594047768149167 -12.9667229533671318 0 0 0
239       23   1    0.0285690000000000  -4.6861959952708423  -29.4945414877381289 -12.0755181175377082 0 0 0
240       23   1    0.0285690000000000  -3.0310919032040360  -29.3899851699865984 -11.3925118059695372 0 0 0
241       24   3   -0.0003600000000000   19.1676055679616120 -26.5145412254213468  12.3406534156163925 0 0 0
242       24   2    0.1974500000000000   20.2819451233673291 -27.4043463402334950  11.8597991934114564 0 0 0
243       24   3   -0.0003600000000000   19.9218922656621729 -28.7456396041440101  11.2801264871826756 0 0 0
244       24   4   -0.3681440000000000   21.4570606977017739 -27.0444936756854659  11.9385464357397986 0 0 0
245       24   1    0.0285690000000000   18.1938695930388157 -26.9884757384647607  12.1960943834272761 0 0 0
246       24   1    0.0285690000000000   19.1862689143034864 -25.5793129676114681  11.7754497707261567 0 0 0
247       24   1    0.0285690000000000   19.3023827325961577 -26.3155116602941987  13.4068156348393330 0 0 0
248       24   1    0.0285690000000000   18.8404770542104991 -28.9010502745568303  11.2869653951922064 0 0 0
249       24   1    0.0285690000000000   20.3897781803846883 -29.5318791375861451  11.8779382287510025 0 0 0
250       24   1    0.0285690000000000   20.2736694604651611 -28.7956788015706060  10.2465808089287069 0 0 0
251       25   3   -0.0003600000000000  -27.4965449626222451  18.5081429265421029  27.0688251980157482 0 0 0
252       25   2    0.1974500000000000  -28.0066825936725330  19.9174922209876932  27.2038093960987055 0 0 0
253       25   3   -0.0003600000000000  -27.4383239304716575  20.7781907856476273  28.2996618210432374 0 0 0
254       25   4   -0.3681440000000000  -28.8662526726324238  20.3547793707537927  26.4379693936136313 0 0 0
255       25   1    0.0285690000000000  -26.7407418385348805  18.2877965494995465  27.8263752604169063 0 0 0
256       25   1    0.0285690000000000  -27.0454831915974090  18.3831364446353511  26.0812159467927636 0 0 0
257       25   1    0.0285690000000000  -28.3292226224256467  17.8117222242097135  27.1958120076740784 0 0 0
258       25   1    0.0285690000000000  -26.6908314752117874  20.2337693375903847  28.8814851816303033 0 0 0
259       25   1    0.0285690000000000  -28.2452880669747124  21.0842543715877859  28.9701860005172662 0 0 0
260       25   1    0.0285690000000000  -26.9615580714250207  21.6556653582377017  27.8555892197656938 0 0 0
261       26   3   -0.0003600000000000  -2.9257411724126623  -26.7737609851231930 -19.8116002970732836 0 0 0
262       26   2    0.1974500000000000  -3.7263678889734257  -27.9108904844702685 -19.2365699217505650 0 0 0
263       26   3   -0.0003600000000000  -5.0703943422337998  -28.2128490031947941 -19.8424907684013476 0 0 0
264       26   4   -0.3681440000000000  -3.2932597849736354  -28.5765450235615504 -18.2953403608904708 0 0 0
265       26   1    0.0285690000000000  -3.4575633021196093  -26.2944021915540986 -20.6368598651377511 0 0 0
266       26   1    0.0285690000000000  -1.9748595786997980  -27.1591337224645635 -20.1881204465368818 0 0 0
267       26   1    0.0285690000000000  -2.7502099886981948  -26.0284671436197534 -19.0317250359187469 0 0 0
268       26   1    0.0285690000000000  -5.2960333148873842  -27.5280491702909913 -20.6633405412433468 0 0 0
269       26   1    0.0285690000000000  -5.8419563372423315  -28.1030842296591246 -19.0762581054006723 0 0 0
270       26   1    0.0285690000000000  -5.0666042076974644  -29.2337474716299965 -20.2326442473386336 0 0 0
271       27   3   -0.0003600000000000   20.3658335494465774 -20.6261971569958540  4.5715132105200134  0 0 0